No GPU/TPU found, falling back to CPU. (Set TF_CPP_MIN_LOG_LEVEL=0 and rerun for more info.)
#INFO: **** input file is /home/sharedfolder/src/test.py ****
from pyscf import gto
import os
n_cpu = 4
os.environ['XLA_FLAGS'] = f'--xla_force_host_platform_device_count={n_cpu}'

import jax
import jax.config
jax.config.update("jax_enable_x64", True)
jax.config.update("jax_platforms", "cpu,cuda")
cpus = jax.devices("cpu")
gpus = jax.devices("gpu")

from main import run

# define molecule
mol = gto.M(
            verbose = 4,
            atom = "C 0 0 0; C 0 0 1.26",
            basis = 'sto-3g',
           )

kwargs_dict_mc = {
      # Hamiltonian approxmation
      'epsilon':0.0,
      # optimizer
      'optimizer_param_dict':{'eta':1e-4,'diag_correct':'const','cg':True},
      'lr_dict':{'lr':0.10},
      # sampler
      'void_move':-1,
      'equi_move':500,
      'n_chain_per_cpu':5,
      # MC sampling
      'n_optStep':200,
      'unique_samples':240000,
      'init_samples':100_000,
      'max_samples':100_000,
      'statistic_opt':False,
      # convergency and check point
      'energy_threshold':1e-5,
      'energy_cor':-0.0,
      'n_converge':10,
      'save_freq':5,
      'save_num':1,
}

kwargs_dict_sc = {
      # Hamiltonian approxmation
      'epsilon1':0,
      # optimizer
      'optimizer_param_dict':{'eta':1e-4,'diag_correct':'const','cg':True},
      'lr_dict':{'lr':0.20},
      # MC sampler
      'void_move':-1,
      'equi_move':500,
      'n_chain_per_cpu':5,
      'init_samples':100_000,
      # SC sampler
      'n_optStep':2000,
      'epsilon2':1e-5,
      # convergency and check point
      'energy_threshold':1e-7,
      'n_converge':10,
      'save_freq':5,
      'save_num':1,
}

run(
    mol,
    n_cpu=n_cpu,
    # active space
    n_core=0,
    n_virtual=0,
    # NQS model
    wf_name='RBM',
    alpha=2,
    sigma=0.05,
    param_file=None,
    # file saving
    path_name='./output/test_',
    mc_step=True,
    kwargs_dict_mc=kwargs_dict_mc,
    sc_step=True,
    kwargs_dict_sc=kwargs_dict_sc,
    hf_type='RHF',
    end_analyze=True,
    )
#INFO: ******************** input file end ********************


System: uname_result(system='Linux', node='localhost.localdomain', release='4.18.0-372.32.1.el8_6.x86_64', version='#1 SMP Thu Oct 27 15:18:36 UTC 2022', machine='x86_64')  Threads 128
Python 3.10.11 (main, Apr 20 2023, 19:02:41) [GCC 11.2.0]
numpy 1.23.5  scipy 1.10.1
Date: Fri Oct  6 21:46:36 2023
PySCF version 2.1.1
PySCF path  /opt/gengzi/pub/toolkits/conda/envs/nqs/lib/python3.10/site-packages/pyscf

[CONFIG] conf_file None
[INPUT] verbose = 4
[INPUT] num. atoms = 2
[INPUT] num. electrons = 12
[INPUT] charge = 0
[INPUT] spin (= nelec alpha-beta = 2S) = 0
[INPUT] symmetry False subgroup None
[INPUT] Mole.unit = angstrom
[INPUT] Symbol           X                Y                Z      unit          X                Y                Z       unit  Magmom
[INPUT]  1 C      0.000000000000   0.000000000000   0.000000000000 AA    0.000000000000   0.000000000000   0.000000000000 Bohr   0.0
[INPUT]  2 C      0.000000000000   0.000000000000   1.260000000000 AA    0.000000000000   0.000000000000   2.381054916952 Bohr   0.0

nuclear repulsion = 15.1193488834286
number of shells = 6
number of NR pGTOs = 30
number of NR cGTOs = 10
basis = sto-3g
ecp = {}
CPU time:         1.04


******** <class 'pyscf.scf.hf.RHF'> ********
method = RHF
initial guess = minao
damping factor = 0
level_shift factor = 0
DIIS = <class 'pyscf.scf.diis.CDIIS'>
diis_start_cycle = 1
diis_space = 8
SCF conv_tol = 1e-09
SCF conv_tol_grad = None
SCF max_cycles = 50
direct_scf = True
direct_scf_tol = 1e-13
chkfile to save SCF result = /home/sharedfolder/src/tmp35netgly
max_memory 4000 MB (current use 335 MB)
Set gradient conv threshold to 3.16228e-05
init E= -74.5319839375386
  HOMO = -0.173997200264461  LUMO = -0.096126834033102
cycle= 1 E= -74.4204584625562  delta_E= 0.112  |g|= 0.0345  |ddm|= 2.24
  HOMO = -0.366360194832171  LUMO = 0.0329182449782798
cycle= 2 E= -74.420822873625  delta_E= -0.000364  |g|= 0.00748  |ddm|= 0.0298
  HOMO = -0.363427969078149  LUMO = 0.0337694652348032
cycle= 3 E= -74.4208580543321  delta_E= -3.52e-05  |g|= 0.00161  |ddm|= 0.012
  HOMO = -0.363012282271549  LUMO = 0.0337102503031182
cycle= 4 E= -74.4208597320953  delta_E= -1.68e-06  |g|= 0.000159  |ddm|= 0.00435
  HOMO = -0.363032283564029  LUMO = 0.0336720511790641
cycle= 5 E= -74.4208597433125  delta_E= -1.12e-08  |g|= 9.27e-07  |ddm|= 0.000566
  HOMO = -0.363032118621264  LUMO = 0.0336723266789934
cycle= 6 E= -74.4208597433128  delta_E= -3.55e-13  |g|= 7.78e-09  |ddm|= 3.31e-06
  HOMO = -0.363032116595877  LUMO = 0.0336723268004286
Extra cycle  E= -74.4208597433128  delta_E= -1.42e-14  |g|= 2.03e-09  |ddm|= 2.09e-08
converged SCF energy = -74.4208597433128
MO_energy:
[-11.04736712 -11.04611234  -0.96129829  -0.42869841  -0.36303212
  -0.36303212   0.03367233   0.33980887   0.33980887   1.11411065]
MO_occ:
[2. 2. 2. 2. 2. 2. 0. 0. 0. 0.]
HF energy from PySCF -74.42085974331285

Number of alpha electrons:  6
Number of beta electrons:  6
Number of space orbitals:  10
Number of spin orbitals:  20
Number of WaveFunction parameters:  860

Length of S&D excitation space:  804
****************************************************************************************************
Optimization step 1 start ...
Metropolis-Hasting Sampling Acceptance: 74.26%
The number of unique states of this sampling is 34459
The number of total states of this sampling is 100000
The sampling costs 0.55 min.
The maximum magnitude of abandoned Hamiltonian matrix elemet:  0.0
!!! The Standard Method !!!
Variance: 108.66240
VMC energy: -54.47533724 +/- 0.03296 a.u.
Imaginary part of VMC energy: 7.06e-04
Current energy ratio: 1.56138 a.u.
!!! The Logpsi-Prob Method !!!
Variance: 108.15467
VMC energy: -54.45339453 +/- 0.05602 a.u.
Imaginary part of VMC energy: 1.18e-02
E_loc+E_nuc of 10 most probable configuration:
 [-48.87905412 -48.80059418 -48.82975947 -62.19340341 -61.13280433
 -62.53827184 -50.38223043 -49.13237123 -48.94754628 -50.15174473]
Largest 5 Local Energy:
 [-74.83205506 -74.8367756  -74.87881458 -75.02504308 -75.16924394]
Energy calculation costs 0.48 min.
The best energy: -54.45339453 a.u.
The matrix building cost 0.02 min.
Solve the matrix equation cost 0.00 min.
Learning Rate of Current step is 1.00e-01
!!! Convergency Info !!!
This updates step cost 1.05 min.
Energy change: -54.45339453
Percent of |grad| larger than 1e-1 is 97.21%
Percent of |grad| larger than 1e-2 is 100.00%
Percent of |updates| larger than 1e-1 is 92.09%
Percent of |updates| larger than 1e-2 is 99.42%
Time: 0.02 h, optimization step 1 ended!
****************************************************************************************************
Optimization step 2 start ...
Metropolis-Hasting Sampling Acceptance: 43.31%
The number of unique states of this sampling is 18553
The number of total states of this sampling is 100000
The sampling costs 0.52 min.
The maximum magnitude of abandoned Hamiltonian matrix elemet:  0.0
!!! The Standard Method !!!
Variance: 33.46653
VMC energy: -68.65730994 +/- 0.01829 a.u.
Imaginary part of VMC energy: -8.85e-04
Current energy ratio: 0.39948 a.u.
!!! The Logpsi-Prob Method !!!
Variance: 23.73680
VMC energy: -69.45920118 +/- 0.03577 a.u.
Imaginary part of VMC energy: -2.09e-04
E_loc+E_nuc of 10 most probable configuration:
 [-72.50707196 -72.63056132 -73.20088197 -73.55140283 -72.25765544
 -71.91349672 -72.3286184  -72.56355172 -72.64750041 -72.55564554]
Largest 5 Local Energy:
 [-74.88134742 -74.8872667  -74.97037321 -75.00373109 -75.03620123]
Energy calculation costs 0.27 min.
The best energy: -69.45920118 a.u.
The matrix building cost 0.01 min.
Solve the matrix equation cost 0.00 min.
Learning Rate of Current step is 1.00e-01
!!! Convergency Info !!!
This updates step cost 0.81 min.
Energy change: -15.00580665
Percent of |grad| larger than 1e-1 is 31.51%
Percent of |grad| larger than 1e-2 is 95.47%
Percent of |grad| larger than 1e-3 is 99.88%
Percent of |updates| larger than 1e-1 is 81.51%
Percent of |updates| larger than 1e-2 is 99.77%
Time: 0.03 h, optimization step 2 ended!
****************************************************************************************************
Optimization step 3 start ...
Metropolis-Hasting Sampling Acceptance: 32.42%
The number of unique states of this sampling is 8114
The number of total states of this sampling is 100000
The sampling costs 0.53 min.
The maximum magnitude of abandoned Hamiltonian matrix elemet:  0.0
!!! The Standard Method !!!
Variance: 5.49734
VMC energy: -71.88357721 +/- 0.00741 a.u.
Imaginary part of VMC energy: 8.82e-04
Current energy ratio: 0.06319 a.u.
!!! The Logpsi-Prob Method !!!
Variance: 2.43423
VMC energy: -72.17393044 +/- 0.01732 a.u.
Imaginary part of VMC energy: 3.73e-04
E_loc+E_nuc of 10 most probable configuration:
 [-71.95293828 -72.26287441 -73.50054963 -72.6485588  -73.16577535
 -72.34330922 -72.60697674 -72.679652   -73.49012545 -72.57960902]
Largest 5 Local Energy:
 [-74.84752738 -74.8616469  -74.86726995 -74.98674556 -74.99876523]
Energy calculation costs 0.13 min.
The best energy: -72.17393044 a.u.
The matrix building cost 0.01 min.
Solve the matrix equation cost 0.00 min.
Learning Rate of Current step is 1.00e-01
!!! Convergency Info !!!
This updates step cost 0.67 min.
Energy change: -2.71472926
Percent of |grad| larger than 1e-1 is 14.30%
Percent of |grad| larger than 1e-2 is 90.93%
Percent of |grad| larger than 1e-3 is 99.77%
Percent of |updates| larger than 1e-1 is 64.88%
Percent of |updates| larger than 1e-2 is 99.53%
Time: 0.04 h, optimization step 3 ended!
****************************************************************************************************
Optimization step 4 start ...
Metropolis-Hasting Sampling Acceptance: 29.48%
The number of unique states of this sampling is 5336
The number of total states of this sampling is 100000
The sampling costs 0.52 min.
The maximum magnitude of abandoned Hamiltonian matrix elemet:  0.0
!!! The Standard Method !!!
Variance: 1.58824
VMC energy: -72.42918128 +/- 0.00399 a.u.
Imaginary part of VMC energy: -3.24e-04
Current energy ratio: 0.01814 a.u.
!!! The Logpsi-Prob Method !!!
Variance: 1.04205
VMC energy: -72.48621802 +/- 0.01397 a.u.
Imaginary part of VMC energy: 1.68e-04
E_loc+E_nuc of 10 most probable configuration:
 [-72.65746225 -73.13197217 -74.15095357 -72.63023009 -74.17907973
 -74.01028385 -72.6986846  -73.47825932 -72.59576078 -73.45157995]
Largest 5 Local Energy:
 [-74.75935669 -74.82845123 -74.84709237 -74.94752199 -74.9660791 ]
Energy calculation costs 0.09 min.
The best energy: -72.48621802 a.u.
The matrix building cost 0.01 min.
Solve the matrix equation cost 0.00 min.
Learning Rate of Current step is 1.00e-01
!!! Convergency Info !!!
This updates step cost 0.62 min.
Energy change: -0.31228758
Percent of |grad| larger than 1e-1 is 17.56%
Percent of |grad| larger than 1e-2 is 86.63%
Percent of |grad| larger than 1e-3 is 99.53%
Percent of |updates| larger than 1e-1 is 54.88%
Percent of |updates| larger than 1e-2 is 99.53%
Time: 0.05 h, optimization step 4 ended!
****************************************************************************************************
Optimization step 5 start ...
Metropolis-Hasting Sampling Acceptance: 27.28%
The number of unique states of this sampling is 4926
The number of total states of this sampling is 100000
The sampling costs 0.53 min.
The maximum magnitude of abandoned Hamiltonian matrix elemet:  0.0
!!! The Standard Method !!!
Variance: 1.09198
VMC energy: -72.65096932 +/- 0.00330 a.u.
Imaginary part of VMC energy: -2.61e-04
Current energy ratio: 0.01244 a.u.
!!! The Logpsi-Prob Method !!!
Variance: 0.98293
VMC energy: -72.66119798 +/- 0.01413 a.u.
Imaginary part of VMC energy: -3.08e-05
E_loc+E_nuc of 10 most probable configuration:
 [-73.77693859 -74.17050232 -74.01930078 -74.50602799 -74.31579149
 -73.41949283 -74.01882597 -74.15293274 -73.4642647  -74.18781987]
Largest 5 Local Energy:
 [-74.7384428  -74.78986339 -74.83523088 -74.90723954 -74.93760995]
Energy calculation costs 0.09 min.
The best energy: -72.66119798 a.u.
The matrix building cost 0.00 min.
Solve the matrix equation cost 0.00 min.
Learning Rate of Current step is 1.00e-01
!!! Convergency Info !!!
This updates step cost 0.65 min.
Energy change: -0.17497997
Percent of |grad| larger than 1e-1 is 17.09%
Percent of |grad| larger than 1e-2 is 85.58%
Percent of |grad| larger than 1e-3 is 98.95%
Percent of |grad| larger than 1e-4 is 99.53%
Percent of |updates| larger than 1e-1 is 28.02%
Percent of |updates| larger than 1e-2 is 98.26%
Percent of |updates| larger than 1e-3 is 100.00%
Time: 0.06 h, optimization step 5 ended!
****************************************************************************************************
Optimization step 6 start ...
Metropolis-Hasting Sampling Acceptance: 25.13%
The number of unique states of this sampling is 4835
The number of total states of this sampling is 100000
The sampling costs 0.53 min.
The maximum magnitude of abandoned Hamiltonian matrix elemet:  0.0
!!! The Standard Method !!!
Variance: 0.99124
VMC energy: -72.81712032 +/- 0.00315 a.u.
Imaginary part of VMC energy: 1.68e-04
Current energy ratio: 0.01127 a.u.
!!! The Logpsi-Prob Method !!!
Variance: 0.92772
VMC energy: -72.82382864 +/- 0.01385 a.u.
Imaginary part of VMC energy: -2.62e-05
E_loc+E_nuc of 10 most probable configuration:
 [-74.32611671 -74.29288111 -73.39063427 -74.47008986 -74.20044784
 -73.4546567  -74.32938465 -74.02535367 -74.15275893 -74.19290458]
Largest 5 Local Energy:
 [-74.82358481 -74.85176873 -74.86806014 -74.91333724 -75.71657357]
Energy calculation costs 0.08 min.
The best energy: -72.82382864 a.u.
The matrix building cost 0.01 min.
Solve the matrix equation cost 0.00 min.
Learning Rate of Current step is 1.00e-01
!!! Convergency Info !!!
This updates step cost 0.62 min.
Energy change: -0.16263066
Percent of |grad| larger than 1e-1 is 14.77%
Percent of |grad| larger than 1e-2 is 85.23%
Percent of |grad| larger than 1e-3 is 98.95%
Percent of |grad| larger than 1e-4 is 99.53%
Percent of |updates| larger than 1e-1 is 23.72%
Percent of |updates| larger than 1e-2 is 96.51%
Percent of |updates| larger than 1e-3 is 99.77%
Time: 0.07 h, optimization step 6 ended!
****************************************************************************************************
Optimization step 7 start ...
Metropolis-Hasting Sampling Acceptance: 22.92%
The number of unique states of this sampling is 4747
The number of total states of this sampling is 100000
The sampling costs 0.53 min.
The maximum magnitude of abandoned Hamiltonian matrix elemet:  0.0
!!! The Standard Method !!!
Variance: 0.94684
VMC energy: -72.96733863 +/- 0.00308 a.u.
Imaginary part of VMC energy: 3.78e-04
Current energy ratio: 0.01075 a.u.
!!! The Logpsi-Prob Method !!!
Variance: 0.86133
VMC energy: -72.97665518 +/- 0.01347 a.u.
Imaginary part of VMC energy: -1.34e-04
E_loc+E_nuc of 10 most probable configuration:
 [-74.26988352 -73.44747501 -74.43905819 -74.33427941 -74.30226624
 -74.0299023  -74.22516038 -74.33999653 -74.15344371 -74.19705947]
Largest 5 Local Energy:
 [-74.81117937 -74.81166864 -74.83028037 -74.89090097 -74.96036348]
Energy calculation costs 0.09 min.
The best energy: -72.97665518 a.u.
The matrix building cost 0.00 min.
Solve the matrix equation cost 0.00 min.
Learning Rate of Current step is 1.00e-01
!!! Convergency Info !!!
This updates step cost 0.62 min.
Energy change: -0.15282653
Percent of |grad| larger than 1e-1 is 9.53%
Percent of |grad| larger than 1e-2 is 83.95%
Percent of |grad| larger than 1e-3 is 99.53%
Percent of |updates| larger than 1e-1 is 22.44%
Percent of |updates| larger than 1e-2 is 97.33%
Percent of |updates| larger than 1e-3 is 99.88%
Time: 0.08 h, optimization step 7 ended!
****************************************************************************************************
Optimization step 8 start ...
Metropolis-Hasting Sampling Acceptance: 20.87%
The number of unique states of this sampling is 4541
The number of total states of this sampling is 100000
The sampling costs 0.53 min.
The maximum magnitude of abandoned Hamiltonian matrix elemet:  0.0
!!! The Standard Method !!!
Variance: 0.85939
VMC energy: -73.10454612 +/- 0.00293 a.u.
Imaginary part of VMC energy: 6.57e-04
Current energy ratio: 0.00974 a.u.
!!! The Logpsi-Prob Method !!!
Variance: 0.78576
VMC energy: -73.11843460 +/- 0.01315 a.u.
Imaginary part of VMC energy: -3.36e-04
E_loc+E_nuc of 10 most probable configuration:
 [-74.03305869 -74.28020931 -74.41201106 -74.03321492 -74.34159735
 -74.31093024 -74.24651015 -74.34872639 -74.15475106 -74.20058976]
Largest 5 Local Energy:
 [-74.79746456 -74.86968417 -74.87963886 -75.05333687 -76.71690017]
Energy calculation costs 0.08 min.
The best energy: -73.11843460 a.u.
The matrix building cost 0.00 min.
Solve the matrix equation cost 0.00 min.
Learning Rate of Current step is 1.00e-01
!!! Convergency Info !!!
This updates step cost 0.62 min.
Energy change: -0.14177942
Percent of |grad| larger than 1e-1 is 8.60%
Percent of |grad| larger than 1e-2 is 82.56%
Percent of |grad| larger than 1e-3 is 98.37%
Percent of |grad| larger than 1e-4 is 99.53%
Percent of |updates| larger than 1e-1 is 24.77%
Percent of |updates| larger than 1e-2 is 96.16%
Percent of |updates| larger than 1e-3 is 99.88%
Time: 0.09 h, optimization step 8 ended!
****************************************************************************************************
Optimization step 9 start ...
Metropolis-Hasting Sampling Acceptance: 18.94%
The number of unique states of this sampling is 4312
The number of total states of this sampling is 100000
The sampling costs 0.53 min.
The maximum magnitude of abandoned Hamiltonian matrix elemet:  0.0
!!! The Standard Method !!!
Variance: 0.79353
VMC energy: -73.22594983 +/- 0.00282 a.u.
Imaginary part of VMC energy: -4.31e-04
Current energy ratio: 0.00898 a.u.
!!! The Logpsi-Prob Method !!!
Variance: 0.71375
VMC energy: -73.24559262 +/- 0.01287 a.u.
Imaginary part of VMC energy: -3.30e-04
E_loc+E_nuc of 10 most probable configuration:
 [-74.05955824 -74.03571195 -74.38825957 -74.28915008 -74.34837615
 -74.31894137 -74.26521358 -74.35588889 -74.15680378 -74.20405165]
Largest 5 Local Energy:
 [-74.7799104  -74.80570531 -74.848972   -74.93597305 -75.1339641 ]
Energy calculation costs 0.08 min.
The best energy: -73.24559262 a.u.
The matrix building cost 0.00 min.
Solve the matrix equation cost 0.00 min.
Learning Rate of Current step is 1.00e-01
!!! Convergency Info !!!
This updates step cost 0.62 min.
Energy change: -0.12715802
Percent of |grad| larger than 1e-1 is 7.44%
Percent of |grad| larger than 1e-2 is 80.23%
Percent of |grad| larger than 1e-3 is 98.37%
Percent of |grad| larger than 1e-4 is 99.53%
Percent of |updates| larger than 1e-1 is 27.33%
Percent of |updates| larger than 1e-2 is 95.35%
Percent of |updates| larger than 1e-3 is 99.77%
Time: 0.10 h, optimization step 9 ended!
****************************************************************************************************
Optimization step 10 start ...
Metropolis-Hasting Sampling Acceptance: 17.16%
The number of unique states of this sampling is 4118
The number of total states of this sampling is 100000
The sampling costs 0.53 min.
The maximum magnitude of abandoned Hamiltonian matrix elemet:  0.0
!!! The Standard Method !!!
Variance: 0.74367
VMC energy: -73.33913461 +/- 0.00273 a.u.
Imaginary part of VMC energy: 2.49e-04
Current energy ratio: 0.00841 a.u.
!!! The Logpsi-Prob Method !!!
Variance: 0.64173
VMC energy: -73.35909530 +/- 0.01248 a.u.
Imaginary part of VMC energy: -4.74e-04
E_loc+E_nuc of 10 most probable configuration:
 [-74.03753431 -74.08319886 -74.36744095 -74.29686719 -74.35476939
 -74.3267875  -74.28187418 -74.15975782 -74.36195217 -74.20740161]
Largest 5 Local Energy:
 [-74.82526714 -74.82728599 -74.9042747  -74.98138622 -75.20464553]
Energy calculation costs 0.08 min.
The best energy: -73.35909530 a.u.
The matrix building cost 0.00 min.
Solve the matrix equation cost 0.00 min.
Learning Rate of Current step is 1.00e-01
!!! Convergency Info !!!
This updates step cost 0.63 min.
Energy change: -0.11350268
Percent of |grad| larger than 1e-1 is 5.47%
Percent of |grad| larger than 1e-2 is 80.12%
Percent of |grad| larger than 1e-3 is 99.53%
Percent of |updates| larger than 1e-1 is 29.65%
Percent of |updates| larger than 1e-2 is 97.21%
Percent of |updates| larger than 1e-3 is 100.00%
Time: 0.12 h, optimization step 10 ended!
****************************************************************************************************
Optimization step 11 start ...
Metropolis-Hasting Sampling Acceptance: 15.58%
The number of unique states of this sampling is 3778
The number of total states of this sampling is 100000
The sampling costs 0.52 min.
The maximum magnitude of abandoned Hamiltonian matrix elemet:  0.0
!!! The Standard Method !!!
Variance: 0.65282
VMC energy: -73.44455330 +/- 0.00256 a.u.
Imaginary part of VMC energy: 5.57e-04
Current energy ratio: 0.00737 a.u.
!!! The Logpsi-Prob Method !!!
Variance: 0.57129
VMC energy: -73.46123214 +/- 0.01230 a.u.
Imaginary part of VMC energy: -4.26e-04
E_loc+E_nuc of 10 most probable configuration:
 [-74.1922917  -74.10494171 -74.34908892 -74.30364427 -74.36094899
 -74.33450766 -74.16342556 -74.29696533 -74.36719958 -74.2109321 ]
Largest 5 Local Energy:
 [-74.80551487 -74.86776673 -75.0176725  -75.05077536 -75.26593677]
Energy calculation costs 0.07 min.
The best energy: -73.46123214 a.u.
The matrix building cost 0.00 min.
Solve the matrix equation cost 0.00 min.
Learning Rate of Current step is 1.00e-01
!!! Convergency Info !!!
This updates step cost 0.60 min.
Energy change: -0.10213684
Percent of |grad| larger than 1e-1 is 2.21%
Percent of |grad| larger than 1e-2 is 78.72%
Percent of |grad| larger than 1e-3 is 99.53%
Percent of |updates| larger than 1e-1 is 33.49%
Percent of |updates| larger than 1e-2 is 96.40%
Percent of |updates| larger than 1e-3 is 100.00%
Time: 0.13 h, optimization step 11 ended!
****************************************************************************************************
Optimization step 12 start ...
Metropolis-Hasting Sampling Acceptance: 14.18%
The number of unique states of this sampling is 3536
The number of total states of this sampling is 100000
The sampling costs 0.53 min.
The maximum magnitude of abandoned Hamiltonian matrix elemet:  0.0
!!! The Standard Method !!!
Variance: 0.59684
VMC energy: -73.52997916 +/- 0.00244 a.u.
Imaginary part of VMC energy: -5.01e-04
Current energy ratio: 0.00673 a.u.
!!! The Logpsi-Prob Method !!!
Variance: 0.51707
VMC energy: -73.54812282 +/- 0.01209 a.u.
Imaginary part of VMC energy: -5.97e-04
E_loc+E_nuc of 10 most probable configuration:
 [-74.18981087 -74.12560917 -74.33294458 -74.30980033 -74.16770575
 -74.36701435 -74.34243602 -74.31086076 -74.37189695 -74.21461054]
Largest 5 Local Energy:
 [-74.84559275 -74.90208269 -75.04403435 -75.20422013 -75.31780668]
Energy calculation costs 0.07 min.
The best energy: -73.54812282 a.u.
The matrix building cost 0.00 min.
Solve the matrix equation cost 0.00 min.
Learning Rate of Current step is 1.00e-01
!!! Convergency Info !!!
This updates step cost 0.61 min.
Energy change: -0.08689068
Percent of |grad| larger than 1e-1 is 0.58%
Percent of |grad| larger than 1e-2 is 76.98%
Percent of |grad| larger than 1e-3 is 99.53%
Percent of |updates| larger than 1e-1 is 36.74%
Percent of |updates| larger than 1e-2 is 96.51%
Percent of |updates| larger than 1e-3 is 99.77%
Time: 0.14 h, optimization step 12 ended!
****************************************************************************************************
Optimization step 13 start ...
Metropolis-Hasting Sampling Acceptance: 12.94%
The number of unique states of this sampling is 3290
The number of total states of this sampling is 100000
The sampling costs 0.53 min.
The maximum magnitude of abandoned Hamiltonian matrix elemet:  0.0
!!! The Standard Method !!!
Variance: 0.55969
VMC energy: -73.60774790 +/- 0.00237 a.u.
Imaginary part of VMC energy: 6.31e-04
Current energy ratio: 0.00631 a.u.
!!! The Logpsi-Prob Method !!!
Variance: 0.46766
VMC energy: -73.62428700 +/- 0.01192 a.u.
Imaginary part of VMC energy: -5.00e-04
E_loc+E_nuc of 10 most probable configuration:
 [-74.18798704 -74.14559317 -74.31864658 -74.31517683 -74.17259516
 -74.3730185  -74.35035758 -74.32381811 -74.21809515 -74.37609926]
Largest 5 Local Energy:
 [-74.93109159 -74.93522624 -75.06259151 -75.35179581 -75.36188149]
Energy calculation costs 0.07 min.
The best energy: -73.62428700 a.u.
The matrix building cost 0.00 min.
Solve the matrix equation cost 0.00 min.
Learning Rate of Current step is 1.00e-01
!!! Convergency Info !!!
This updates step cost 0.61 min.
Energy change: -0.07616418
Percent of |grad| larger than 1e-1 is 0.35%
Percent of |grad| larger than 1e-2 is 75.93%
Percent of |grad| larger than 1e-3 is 99.53%
Percent of |updates| larger than 1e-1 is 40.81%
Percent of |updates| larger than 1e-2 is 97.44%
Percent of |updates| larger than 1e-3 is 100.00%
Time: 0.15 h, optimization step 13 ended!
****************************************************************************************************
Optimization step 14 start ...
Metropolis-Hasting Sampling Acceptance: 11.84%
The number of unique states of this sampling is 3095
The number of total states of this sampling is 100000
The sampling costs 0.53 min.
The maximum magnitude of abandoned Hamiltonian matrix elemet:  0.0
!!! The Standard Method !!!
Variance: 0.52140
VMC energy: -73.67419188 +/- 0.00228 a.u.
Imaginary part of VMC energy: -2.48e-04
Current energy ratio: 0.00587 a.u.
!!! The Logpsi-Prob Method !!!
Variance: 0.42612
VMC energy: -73.69052137 +/- 0.01173 a.u.
Imaginary part of VMC energy: -4.19e-04
E_loc+E_nuc of 10 most probable configuration:
 [-74.18684017 -74.16548807 -74.30597624 -74.32014564 -74.17842256
 -74.37903804 -74.35858633 -74.33613608 -74.22164814 -74.3800686 ]
Largest 5 Local Energy:
 [-75.14940906 -75.39789653 -75.49761311 -75.59423395 -75.80476883]
Energy calculation costs 0.06 min.
The best energy: -73.69052137 a.u.
The matrix building cost 0.00 min.
Solve the matrix equation cost 0.00 min.
Learning Rate of Current step is 1.00e-01
!!! Convergency Info !!!
This updates step cost 0.60 min.
Energy change: -0.06623437
Percent of |grad| larger than 1e-1 is 0.23%
Percent of |grad| larger than 1e-2 is 73.60%
Percent of |grad| larger than 1e-3 is 98.37%
Percent of |grad| larger than 1e-4 is 99.53%
Percent of |updates| larger than 1e-1 is 44.07%
Percent of |updates| larger than 1e-2 is 98.60%
Percent of |updates| larger than 1e-3 is 100.00%
Time: 0.16 h, optimization step 14 ended!
****************************************************************************************************
Optimization step 15 start ...
Metropolis-Hasting Sampling Acceptance: 10.84%
The number of unique states of this sampling is 2845
The number of total states of this sampling is 100000
The sampling costs 0.53 min.
The maximum magnitude of abandoned Hamiltonian matrix elemet:  0.0
!!! The Standard Method !!!
Variance: 0.46081
VMC energy: -73.73885194 +/- 0.00215 a.u.
Imaginary part of VMC energy: -6.91e-04
Current energy ratio: 0.00519 a.u.
!!! The Logpsi-Prob Method !!!
Variance: 0.38895
VMC energy: -73.74904272 +/- 0.01169 a.u.
Imaginary part of VMC energy: -3.04e-04
E_loc+E_nuc of 10 most probable configuration:
 [-74.18619278 -74.18584365 -74.29478464 -74.18495013 -74.32470361
 -74.38511924 -74.34797027 -74.3669217  -74.22520211 -74.38385984]
Largest 5 Local Energy:
 [ -75.75634627  -75.78212171  -76.24636383  -76.33426013 -100.5744339 ]
Energy calculation costs 0.06 min.
The best energy: -73.74904272 a.u.
The matrix building cost 0.00 min.
Solve the matrix equation cost 0.00 min.
Learning Rate of Current step is 1.00e-01
!!! Convergency Info !!!
This updates step cost 0.61 min.
Energy change: -0.05852135
Percent of |grad| larger than 1e-1 is 0.00%
Percent of |grad| larger than 1e-2 is 70.35%
Percent of |grad| larger than 1e-3 is 98.95%
Percent of |grad| larger than 1e-4 is 99.53%
Percent of |updates| larger than 1e-1 is 47.09%
Percent of |updates| larger than 1e-2 is 97.56%
Percent of |updates| larger than 1e-3 is 99.88%
Time: 0.17 h, optimization step 15 ended!
****************************************************************************************************
Optimization step 16 start ...
Metropolis-Hasting Sampling Acceptance: 9.99%
The number of unique states of this sampling is 2566
The number of total states of this sampling is 100000
The sampling costs 0.52 min.
The maximum magnitude of abandoned Hamiltonian matrix elemet:  0.0
!!! The Standard Method !!!
Variance: 0.42626
VMC energy: -73.79443328 +/- 0.00206 a.u.
Imaginary part of VMC energy: -1.20e-04
Current energy ratio: 0.00479 a.u.
!!! The Logpsi-Prob Method !!!
Variance: 0.35324
VMC energy: -73.80280022 +/- 0.01173 a.u.
Imaginary part of VMC energy: -3.06e-04
E_loc+E_nuc of 10 most probable configuration:
 [-74.18694773 -74.28460266 -74.2063575  -74.19331068 -74.32893896
 -74.39144936 -74.35955391 -74.22939031 -74.37529482 -74.38767364]
Largest 5 Local Energy:
 [-76.32591352 -76.39071479 -76.56905312 -76.92959781 -77.03705392]
Energy calculation costs 0.06 min.
The best energy: -73.80280022 a.u.
The matrix building cost 0.00 min.
Solve the matrix equation cost 0.00 min.
Learning Rate of Current step is 1.00e-01
!!! Convergency Info !!!
This updates step cost 0.58 min.
Energy change: -0.05375750
Percent of |grad| larger than 1e-1 is 0.00%
Percent of |grad| larger than 1e-2 is 67.33%
Percent of |grad| larger than 1e-3 is 98.84%
Percent of |grad| larger than 1e-4 is 99.53%
Percent of |updates| larger than 1e-1 is 48.02%
Percent of |updates| larger than 1e-2 is 98.60%
Percent of |updates| larger than 1e-3 is 99.88%
Time: 0.18 h, optimization step 16 ended!
****************************************************************************************************
Optimization step 17 start ...
Metropolis-Hasting Sampling Acceptance: 9.22%
The number of unique states of this sampling is 2395
The number of total states of this sampling is 100000
The sampling costs 0.53 min.
The maximum magnitude of abandoned Hamiltonian matrix elemet:  0.0
!!! The Standard Method !!!
Variance: 0.36427
VMC energy: -73.83898933 +/- 0.00191 a.u.
Imaginary part of VMC energy: -9.82e-04
Current energy ratio: 0.00409 a.u.
!!! The Logpsi-Prob Method !!!
Variance: 0.32425
VMC energy: -73.84939008 +/- 0.01164 a.u.
Imaginary part of VMC energy: -2.12e-04
E_loc+E_nuc of 10 most probable configuration:
 [-74.18924588 -74.27546737 -74.22681156 -74.20299157 -74.33276677
 -74.23467336 -74.39796965 -74.37114359 -74.38354375 -74.39160683]
Largest 5 Local Energy:
 [-77.08540836 -77.2024723  -77.63071379 -78.67566266 -78.90043002]
Energy calculation costs 0.06 min.
The best energy: -73.84939008 a.u.
The matrix building cost 0.00 min.
Solve the matrix equation cost 0.00 min.
Learning Rate of Current step is 1.00e-01
!!! Convergency Info !!!
This updates step cost 0.60 min.
Energy change: -0.04658986
Percent of |grad| larger than 1e-1 is 0.00%
Percent of |grad| larger than 1e-2 is 66.16%
Percent of |grad| larger than 1e-3 is 98.84%
Percent of |grad| larger than 1e-4 is 99.53%
Percent of |updates| larger than 1e-1 is 49.30%
Percent of |updates| larger than 1e-2 is 97.21%
Percent of |updates| larger than 1e-3 is 99.77%
Time: 0.19 h, optimization step 17 ended!
****************************************************************************************************
Optimization step 18 start ...
Metropolis-Hasting Sampling Acceptance: 8.51%
The number of unique states of this sampling is 2244
The number of total states of this sampling is 100000
The sampling costs 0.53 min.
The maximum magnitude of abandoned Hamiltonian matrix elemet:  0.0
!!! The Standard Method !!!
Variance: 0.37717
VMC energy: -73.88170313 +/- 0.00194 a.u.
Imaginary part of VMC energy: -1.00e-03
Current energy ratio: 0.00424 a.u.
!!! The Logpsi-Prob Method !!!
Variance: 0.30117
VMC energy: -73.89146440 +/- 0.01158 a.u.
Imaginary part of VMC energy: -2.37e-04
E_loc+E_nuc of 10 most probable configuration:
 [-74.39366884 -74.26729995 -74.24657023 -74.21408888 -74.33618819
 -74.240912   -74.38245393 -74.40454663 -74.39156192 -74.39539959]
Largest 5 Local Energy:
 [-77.0557246  -77.21855135 -77.37299313 -78.31563352 -78.89166038]
Energy calculation costs 0.05 min.
The best energy: -73.89146440 a.u.
The matrix building cost 0.00 min.
Solve the matrix equation cost 0.00 min.
Learning Rate of Current step is 1.00e-01
!!! Convergency Info !!!
This updates step cost 0.59 min.
Energy change: -0.04207432
Percent of |grad| larger than 1e-1 is 0.00%
Percent of |grad| larger than 1e-2 is 64.77%
Percent of |grad| larger than 1e-3 is 99.42%
Percent of |updates| larger than 1e-1 is 50.00%
Percent of |updates| larger than 1e-2 is 98.02%
Percent of |updates| larger than 1e-3 is 99.88%
Time: 0.19 h, optimization step 18 ended!
****************************************************************************************************
Optimization step 19 start ...
Metropolis-Hasting Sampling Acceptance: 7.88%
The number of unique states of this sampling is 2078
The number of total states of this sampling is 100000
The sampling costs 0.54 min.
The maximum magnitude of abandoned Hamiltonian matrix elemet:  0.0
!!! The Standard Method !!!
Variance: 0.33699
VMC energy: -73.92208358 +/- 0.00184 a.u.
Imaginary part of VMC energy: -6.08e-04
Current energy ratio: 0.00378 a.u.
!!! The Logpsi-Prob Method !!!
Variance: 0.27605
VMC energy: -73.93128418 +/- 0.01153 a.u.
Imaginary part of VMC energy: -5.06e-05
E_loc+E_nuc of 10 most probable configuration:
 [-74.39688845 -74.26024618 -74.26554749 -74.22586126 -74.33923249
 -74.24797228 -74.39359162 -74.41118894 -74.39936579 -74.39919523]
Largest 5 Local Energy:
 [-77.87153667 -78.81706146 -78.9504197  -79.27619645 -79.86506601]
Energy calculation costs 0.05 min.
The best energy: -73.93128418 a.u.
The matrix building cost 0.00 min.
Solve the matrix equation cost 0.00 min.
Learning Rate of Current step is 1.00e-01
!!! Convergency Info !!!
This updates step cost 0.59 min.
Energy change: -0.03981977
Percent of |grad| larger than 1e-1 is 0.00%
Percent of |grad| larger than 1e-2 is 62.79%
Percent of |grad| larger than 1e-3 is 99.42%
Percent of |updates| larger than 1e-1 is 50.58%
Percent of |updates| larger than 1e-2 is 97.09%
Percent of |updates| larger than 1e-3 is 99.77%
Time: 0.20 h, optimization step 19 ended!
****************************************************************************************************
Optimization step 20 start ...
Metropolis-Hasting Sampling Acceptance: 7.32%
The number of unique states of this sampling is 1934
The number of total states of this sampling is 100000
The sampling costs 0.53 min.
The maximum magnitude of abandoned Hamiltonian matrix elemet:  0.0
!!! The Standard Method !!!
Variance: 0.30535
VMC energy: -73.95534188 +/- 0.00175 a.u.
Imaginary part of VMC energy: -3.93e-04
Current energy ratio: 0.00343 a.u.
!!! The Logpsi-Prob Method !!!
Variance: 0.25905
VMC energy: -73.96525739 +/- 0.01157 a.u.
Imaginary part of VMC energy: -3.79e-05
E_loc+E_nuc of 10 most probable configuration:
 [-74.40013668 -74.25424024 -74.28351632 -74.23827422 -74.34196466
 -74.25552434 -74.40441179 -74.41787779 -74.40686781 -74.40289359]
Largest 5 Local Energy:
 [-78.51087623 -79.34006069 -80.71986728 -80.98072906 -85.18490996]
Energy calculation costs 0.05 min.
The best energy: -73.96525739 a.u.
The matrix building cost 0.00 min.
Solve the matrix equation cost 0.00 min.
Learning Rate of Current step is 1.00e-01
!!! Convergency Info !!!
This updates step cost 0.59 min.
Energy change: -0.03397321
Percent of |grad| larger than 1e-1 is 0.00%
Percent of |grad| larger than 1e-2 is 60.47%
Percent of |grad| larger than 1e-3 is 99.42%
Percent of |updates| larger than 1e-1 is 52.56%
Percent of |updates| larger than 1e-2 is 96.86%
Percent of |updates| larger than 1e-3 is 99.77%
Time: 0.21 h, optimization step 20 ended!
****************************************************************************************************
Optimization step 21 start ...
Metropolis-Hasting Sampling Acceptance: 6.81%
The number of unique states of this sampling is 1805
The number of total states of this sampling is 100000
The sampling costs 0.52 min.
The maximum magnitude of abandoned Hamiltonian matrix elemet:  0.0
!!! The Standard Method !!!
Variance: 0.30602
VMC energy: -73.98733742 +/- 0.00175 a.u.
Imaginary part of VMC energy: 4.68e-04
Current energy ratio: 0.00343 a.u.
!!! The Logpsi-Prob Method !!!
Variance: 0.23991
VMC energy: -73.99728078 +/- 0.01153 a.u.
Imaginary part of VMC energy: 9.36e-05
E_loc+E_nuc of 10 most probable configuration:
 [-74.40324835 -74.24894947 -74.30010763 -74.2508122  -74.3445076
 -74.26307165 -74.41438757 -74.42421324 -74.4064167  -74.41408323]
Largest 5 Local Energy:
 [-78.28142921 -78.21858084 -79.04014956 -80.0981379  -80.58920681]
Energy calculation costs 0.05 min.
The best energy: -73.99728078 a.u.
The matrix building cost 0.00 min.
Solve the matrix equation cost 0.00 min.
Learning Rate of Current step is 1.00e-01
!!! Convergency Info !!!
This updates step cost 0.58 min.
Energy change: -0.03202339
Percent of |grad| larger than 1e-1 is 0.00%
Percent of |grad| larger than 1e-2 is 59.19%
Percent of |grad| larger than 1e-3 is 99.53%
Percent of |updates| larger than 1e-1 is 52.79%
Percent of |updates| larger than 1e-2 is 98.60%
Percent of |updates| larger than 1e-3 is 100.00%
Time: 0.22 h, optimization step 21 ended!
****************************************************************************************************
Optimization step 22 start ...
Metropolis-Hasting Sampling Acceptance: 6.35%
The number of unique states of this sampling is 1712
The number of total states of this sampling is 100000
The sampling costs 0.53 min.
The maximum magnitude of abandoned Hamiltonian matrix elemet:  0.0
!!! The Standard Method !!!
Variance: 0.27980
VMC energy: -74.02333057 +/- 0.00167 a.u.
Imaginary part of VMC energy: -2.17e-04
Current energy ratio: 0.00314 a.u.
!!! The Logpsi-Prob Method !!!
Variance: 0.22238
VMC energy: -74.02798036 +/- 0.01140 a.u.
Imaginary part of VMC energy: -1.84e-05
E_loc+E_nuc of 10 most probable configuration:
 [-74.40647111 -74.24414077 -74.26354468 -74.31557664 -74.34714943
 -74.27046126 -74.42401805 -74.43049636 -74.40989046 -74.42103999]
Largest 5 Local Energy:
 [-80.04125999 -80.13738096 -80.22723196 -82.56775367 -88.57205943]
Energy calculation costs 0.04 min.
The best energy: -74.02798036 a.u.
The matrix building cost 0.00 min.
Solve the matrix equation cost 0.00 min.
Learning Rate of Current step is 1.00e-01
!!! Convergency Info !!!
This updates step cost 0.58 min.
Energy change: -0.03069959
Percent of |grad| larger than 1e-1 is 0.00%
Percent of |grad| larger than 1e-2 is 58.37%
Percent of |grad| larger than 1e-3 is 99.30%
Percent of |updates| larger than 1e-1 is 52.56%
Percent of |updates| larger than 1e-2 is 97.21%
Percent of |updates| larger than 1e-3 is 99.88%
Time: 0.23 h, optimization step 22 ended!
****************************************************************************************************
Optimization step 23 start ...
Metropolis-Hasting Sampling Acceptance: 5.96%
The number of unique states of this sampling is 1573
The number of total states of this sampling is 100000
The sampling costs 0.54 min.
The maximum magnitude of abandoned Hamiltonian matrix elemet:  0.0
!!! The Standard Method !!!
Variance: 0.27962
VMC energy: -74.04917053 +/- 0.00167 a.u.
Imaginary part of VMC energy: -9.84e-04
Current energy ratio: 0.00314 a.u.
!!! The Logpsi-Prob Method !!!
Variance: 0.20640
VMC energy: -74.05506202 +/- 0.01145 a.u.
Imaginary part of VMC energy: -9.25e-05
E_loc+E_nuc of 10 most probable configuration:
 [-74.40956957 -74.23989487 -74.27570937 -74.32971486 -74.34978023
 -74.27746964 -74.4328636  -74.43643304 -74.41316501 -74.4278114 ]
Largest 5 Local Energy:
 [ -80.62391794  -80.7779987   -81.28197774  -86.48169837 -111.81020584]
Energy calculation costs 0.04 min.
The best energy: -74.05506202 a.u.
The matrix building cost 0.00 min.
Solve the matrix equation cost 0.00 min.
Learning Rate of Current step is 1.00e-01
!!! Convergency Info !!!
This updates step cost 0.59 min.
Energy change: -0.02708166
Percent of |grad| larger than 1e-1 is 0.00%
Percent of |grad| larger than 1e-2 is 58.14%
Percent of |grad| larger than 1e-3 is 99.19%
Percent of |updates| larger than 1e-1 is 51.98%
Percent of |updates| larger than 1e-2 is 96.63%
Percent of |updates| larger than 1e-3 is 99.77%
Time: 0.24 h, optimization step 23 ended!
****************************************************************************************************
Optimization step 24 start ...
Metropolis-Hasting Sampling Acceptance: 5.57%
The number of unique states of this sampling is 1487
The number of total states of this sampling is 100000
The sampling costs 0.53 min.
The maximum magnitude of abandoned Hamiltonian matrix elemet:  0.0
!!! The Standard Method !!!
Variance: 0.24874
VMC energy: -74.07719301 +/- 0.00158 a.u.
Imaginary part of VMC energy: -8.54e-04
Current energy ratio: 0.00279 a.u.
!!! The Logpsi-Prob Method !!!
Variance: 0.19215
VMC energy: -74.08132612 +/- 0.01137 a.u.
Imaginary part of VMC energy: -2.04e-05
E_loc+E_nuc of 10 most probable configuration:
 [-74.41251842 -74.23614418 -74.28752752 -74.35240724 -74.34288221
 -74.28419989 -74.44150514 -74.44227473 -74.41651213 -74.43479246]
Largest 5 Local Energy:
 [-81.55943648 -82.63611842 -82.98405591 -83.71576623 -85.06988542]
Energy calculation costs 0.04 min.
The best energy: -74.08132612 a.u.
The matrix building cost 0.00 min.
Solve the matrix equation cost 0.00 min.
Learning Rate of Current step is 1.00e-01
!!! Convergency Info !!!
This updates step cost 0.58 min.
Energy change: -0.02626410
Percent of |grad| larger than 1e-1 is 0.00%
Percent of |grad| larger than 1e-2 is 56.86%
Percent of |grad| larger than 1e-3 is 99.19%
Percent of |updates| larger than 1e-1 is 51.86%
Percent of |updates| larger than 1e-2 is 98.95%
Percent of |updates| larger than 1e-3 is 99.88%
Time: 0.25 h, optimization step 24 ended!
****************************************************************************************************
Optimization step 25 start ...
Metropolis-Hasting Sampling Acceptance: 5.24%
The number of unique states of this sampling is 1408
The number of total states of this sampling is 100000
The sampling costs 0.53 min.
The maximum magnitude of abandoned Hamiltonian matrix elemet:  0.0
!!! The Standard Method !!!
Variance: 0.23775
VMC energy: -74.09803044 +/- 0.00154 a.u.
Imaginary part of VMC energy: -4.66e-05
Current energy ratio: 0.00266 a.u.
!!! The Logpsi-Prob Method !!!
Variance: 0.17959
VMC energy: -74.10484855 +/- 0.01129 a.u.
Imaginary part of VMC energy: -1.06e-04
E_loc+E_nuc of 10 most probable configuration:
 [-74.41534625 -74.23289591 -74.35526386 -74.29811189 -74.35492384
 -74.29043381 -74.44960245 -74.44799972 -74.41992699 -74.44156786]
Largest 5 Local Energy:
 [-79.57771028 -80.81126484 -81.58605446 -83.85238915 -87.15656445]
Energy calculation costs 0.04 min.
The best energy: -74.10484855 a.u.
The matrix building cost 0.00 min.
Solve the matrix equation cost 0.00 min.
Learning Rate of Current step is 1.00e-01
!!! Convergency Info !!!
This updates step cost 0.59 min.
Energy change: -0.02352243
Percent of |grad| larger than 1e-1 is 0.00%
Percent of |grad| larger than 1e-2 is 56.51%
Percent of |grad| larger than 1e-3 is 98.60%
Percent of |grad| larger than 1e-4 is 99.53%
Percent of |updates| larger than 1e-1 is 54.19%
Percent of |updates| larger than 1e-2 is 98.95%
Percent of |updates| larger than 1e-3 is 99.88%
Time: 0.26 h, optimization step 25 ended!
****************************************************************************************************
Optimization step 26 start ...
Metropolis-Hasting Sampling Acceptance: 4.90%
The number of unique states of this sampling is 1331
The number of total states of this sampling is 100000
The sampling costs 0.54 min.
The maximum magnitude of abandoned Hamiltonian matrix elemet:  0.0
!!! The Standard Method !!!
Variance: 0.22425
VMC energy: -74.12394038 +/- 0.00150 a.u.
Imaginary part of VMC energy: 6.09e-04
Current energy ratio: 0.00251 a.u.
!!! The Logpsi-Prob Method !!!
Variance: 0.16803
VMC energy: -74.12758108 +/- 0.01124 a.u.
Imaginary part of VMC energy: -9.22e-05
E_loc+E_nuc of 10 most probable configuration:
 [-74.22978664 -74.41820947 -74.35866594 -74.30829884 -74.36723962
 -74.29615898 -74.45768155 -74.45397517 -74.42350114 -74.44858406]
Largest 5 Local Energy:
 [-81.75441019 -83.53510675 -83.6355027  -84.0787653  -85.17583268]
Energy calculation costs 0.04 min.
The best energy: -74.12758108 a.u.
The matrix building cost 0.00 min.
Solve the matrix equation cost 0.00 min.
Learning Rate of Current step is 1.00e-01
!!! Convergency Info !!!
This updates step cost 0.58 min.
Energy change: -0.02273253
Percent of |grad| larger than 1e-1 is 0.00%
Percent of |grad| larger than 1e-2 is 54.53%
Percent of |grad| larger than 1e-3 is 98.49%
Percent of |grad| larger than 1e-4 is 99.53%
Percent of |updates| larger than 1e-1 is 50.47%
Percent of |updates| larger than 1e-2 is 99.30%
Time: 0.27 h, optimization step 26 ended!
****************************************************************************************************
Optimization step 27 start ...
Metropolis-Hasting Sampling Acceptance: 4.63%
The number of unique states of this sampling is 1262
The number of total states of this sampling is 100000
The sampling costs 0.54 min.
The maximum magnitude of abandoned Hamiltonian matrix elemet:  0.0
!!! The Standard Method !!!
Variance: 0.19825
VMC energy: -74.14526819 +/- 0.00141 a.u.
Imaginary part of VMC energy: 8.08e-05
Current energy ratio: 0.00222 a.u.
!!! The Logpsi-Prob Method !!!
Variance: 0.15526
VMC energy: -74.14901634 +/- 0.01109 a.u.
Imaginary part of VMC energy: 1.28e-05
E_loc+E_nuc of 10 most probable configuration:
 [-74.22715948 -74.42075697 -74.36233906 -74.31730919 -74.37918432
 -74.30198859 -74.46541674 -74.46001939 -74.42711222 -74.45548161]
Largest 5 Local Energy:
 [-80.56477898 -81.03772638 -84.34890629 -84.65200905 -89.81841974]
Energy calculation costs 0.04 min.
The best energy: -74.14901634 a.u.
The matrix building cost 0.00 min.
Solve the matrix equation cost 0.00 min.
Learning Rate of Current step is 1.00e-01
!!! Convergency Info !!!
This updates step cost 0.58 min.
Energy change: -0.02143526
Percent of |grad| larger than 1e-1 is 0.00%
Percent of |grad| larger than 1e-2 is 54.07%
Percent of |grad| larger than 1e-3 is 99.07%
Percent of |updates| larger than 1e-1 is 48.72%
Percent of |updates| larger than 1e-2 is 98.72%
Percent of |updates| larger than 1e-3 is 99.88%
Time: 0.28 h, optimization step 27 ended!
****************************************************************************************************
Optimization step 28 start ...
Metropolis-Hasting Sampling Acceptance: 4.38%
The number of unique states of this sampling is 1185
The number of total states of this sampling is 100000
The sampling costs 0.53 min.
The maximum magnitude of abandoned Hamiltonian matrix elemet:  0.0
!!! The Standard Method !!!
Variance: 0.18023
VMC energy: -74.16660783 +/- 0.00134 a.u.
Imaginary part of VMC energy: -5.27e-04
Current energy ratio: 0.00202 a.u.
!!! The Logpsi-Prob Method !!!
Variance: 0.14318
VMC energy: -74.16960255 +/- 0.01099 a.u.
Imaginary part of VMC energy: -2.92e-04
E_loc+E_nuc of 10 most probable configuration:
 [-74.42859134 -74.42326297 -74.36612443 -74.32548963 -74.39112995
 -74.30728565 -74.47304817 -74.46592174 -74.43067755 -74.46242849]
Largest 5 Local Energy:
 [-80.05760861 -80.14601704 -80.62532382 -83.93266796 -85.20774276]
Energy calculation costs 0.04 min.
The best energy: -74.16960255 a.u.
The matrix building cost 0.00 min.
Solve the matrix equation cost 0.00 min.
Learning Rate of Current step is 1.00e-01
!!! Convergency Info !!!
This updates step cost 0.58 min.
Energy change: -0.02058621
Percent of |grad| larger than 1e-1 is 0.00%
Percent of |grad| larger than 1e-2 is 51.16%
Percent of |grad| larger than 1e-3 is 99.30%
Percent of |updates| larger than 1e-1 is 48.14%
Percent of |updates| larger than 1e-2 is 99.19%
Time: 0.29 h, optimization step 28 ended!
****************************************************************************************************
Optimization step 29 start ...
Metropolis-Hasting Sampling Acceptance: 4.14%
The number of unique states of this sampling is 1116
The number of total states of this sampling is 100000
The sampling costs 0.53 min.
The maximum magnitude of abandoned Hamiltonian matrix elemet:  0.0
!!! The Standard Method !!!
Variance: 0.19608
VMC energy: -74.18356261 +/- 0.00140 a.u.
Imaginary part of VMC energy: -2.94e-04
Current energy ratio: 0.00220 a.u.
!!! The Logpsi-Prob Method !!!
Variance: 0.13076
VMC energy: -74.18846093 +/- 0.01082 a.u.
Imaginary part of VMC energy: -2.87e-04
E_loc+E_nuc of 10 most probable configuration:
 [-74.43713825 -74.42575539 -74.36992129 -74.33330128 -74.40260662
 -74.31242664 -74.4803171  -74.47198192 -74.43391444 -74.46912946]
Largest 5 Local Energy:
 [-81.43994436 -82.20483682 -82.82867796 -83.17348558 -85.52790702]
Energy calculation costs 0.04 min.
The best energy: -74.18846093 a.u.
The matrix building cost 0.00 min.
Solve the matrix equation cost 0.00 min.
Learning Rate of Current step is 1.00e-01
!!! Convergency Info !!!
This updates step cost 0.58 min.
Energy change: -0.01885837
Percent of |grad| larger than 1e-1 is 0.00%
Percent of |grad| larger than 1e-2 is 50.12%
Percent of |grad| larger than 1e-3 is 99.07%
Percent of |updates| larger than 1e-1 is 45.23%
Percent of |updates| larger than 1e-2 is 98.49%
Percent of |updates| larger than 1e-3 is 99.77%
Time: 0.30 h, optimization step 29 ended!
****************************************************************************************************
Optimization step 30 start ...
Metropolis-Hasting Sampling Acceptance: 3.95%
The number of unique states of this sampling is 1070
The number of total states of this sampling is 100000
The sampling costs 0.53 min.
The maximum magnitude of abandoned Hamiltonian matrix elemet:  0.0
!!! The Standard Method !!!
Variance: 0.18378
VMC energy: -74.20214796 +/- 0.00136 a.u.
Imaginary part of VMC energy: 2.39e-04
Current energy ratio: 0.00206 a.u.
!!! The Logpsi-Prob Method !!!
Variance: 0.12137
VMC energy: -74.20578290 +/- 0.01065 a.u.
Imaginary part of VMC energy: -3.81e-04
E_loc+E_nuc of 10 most probable configuration:
 [-74.44521439 -74.42805827 -74.37349195 -74.3399309  -74.41355816
 -74.31781169 -74.48702772 -74.47760642 -74.43685195 -74.47552458]
Largest 5 Local Energy:
 [-80.15960422 -80.5497057  -81.71946579 -87.34224535 -90.65040652]
Energy calculation costs 0.04 min.
The best energy: -74.20578290 a.u.
The matrix building cost 0.00 min.
Solve the matrix equation cost 0.00 min.
Learning Rate of Current step is 1.00e-01
!!! Convergency Info !!!
This updates step cost 0.58 min.
Energy change: -0.01732198
Percent of |grad| larger than 1e-1 is 0.00%
Percent of |grad| larger than 1e-2 is 48.60%
Percent of |grad| larger than 1e-3 is 99.07%
Percent of |updates| larger than 1e-1 is 44.53%
Percent of |updates| larger than 1e-2 is 98.60%
Percent of |updates| larger than 1e-3 is 99.77%
Time: 0.31 h, optimization step 30 ended!
****************************************************************************************************
Optimization step 31 start ...
Metropolis-Hasting Sampling Acceptance: 3.79%
The number of unique states of this sampling is 1047
The number of total states of this sampling is 100000
The sampling costs 0.53 min.
The maximum magnitude of abandoned Hamiltonian matrix elemet:  0.0
!!! The Standard Method !!!
Variance: 0.19190
VMC energy: -74.21683923 +/- 0.00139 a.u.
Imaginary part of VMC energy: -6.96e-04
Current energy ratio: 0.00215 a.u.
!!! The Logpsi-Prob Method !!!
Variance: 0.11651
VMC energy: -74.22135474 +/- 0.01055 a.u.
Imaginary part of VMC energy: -1.20e-04
E_loc+E_nuc of 10 most probable configuration:
 [-74.45228695 -74.43012393 -74.37667416 -74.34629506 -74.42401942
 -74.32310194 -74.4929058  -74.48294995 -74.43941042 -74.48163214]
Largest 5 Local Energy:
 [-86.17399928 -87.54610603 -84.91346049 -97.24575704 -97.93386559]
Energy calculation costs 0.03 min.
The best energy: -74.22135474 a.u.
The matrix building cost 0.00 min.
Solve the matrix equation cost 0.00 min.
Learning Rate of Current step is 1.00e-01
!!! Convergency Info !!!
This updates step cost 0.57 min.
Energy change: -0.01557184
Percent of |grad| larger than 1e-1 is 0.00%
Percent of |grad| larger than 1e-2 is 48.49%
Percent of |grad| larger than 1e-3 is 98.60%
Percent of |grad| larger than 1e-4 is 99.53%
Percent of |updates| larger than 1e-1 is 42.09%
Percent of |updates| larger than 1e-2 is 97.91%
Percent of |updates| larger than 1e-3 is 99.88%
Time: 0.32 h, optimization step 31 ended!
****************************************************************************************************
Optimization step 32 start ...
Metropolis-Hasting Sampling Acceptance: 3.58%
The number of unique states of this sampling is 978
The number of total states of this sampling is 100000
The sampling costs 0.54 min.
The maximum magnitude of abandoned Hamiltonian matrix elemet:  0.0
!!! The Standard Method !!!
Variance: 0.15361
VMC energy: -74.23371843 +/- 0.00124 a.u.
Imaginary part of VMC energy: 5.12e-05
Current energy ratio: 0.00172 a.u.
!!! The Logpsi-Prob Method !!!
Variance: 0.10573
VMC energy: -74.23708918 +/- 0.01040 a.u.
Imaginary part of VMC energy: -2.21e-04
E_loc+E_nuc of 10 most probable configuration:
 [-74.45844357 -74.43187007 -74.37961647 -74.352071   -74.32813548
 -74.43390229 -74.49763566 -74.48766728 -74.44183513 -74.48715483]
Largest 5 Local Energy:
 [ -79.11654858  -80.123877    -81.14292446  -82.18250265 -105.01701159]
Energy calculation costs 0.03 min.
The best energy: -74.23708918 a.u.
The matrix building cost 0.00 min.
Solve the matrix equation cost 0.00 min.
Learning Rate of Current step is 1.00e-01
!!! Convergency Info !!!
This updates step cost 0.58 min.
Energy change: -0.01573443
Percent of |grad| larger than 1e-1 is 0.00%
Percent of |grad| larger than 1e-2 is 48.26%
Percent of |grad| larger than 1e-3 is 98.60%
Percent of |grad| larger than 1e-4 is 99.53%
Percent of |updates| larger than 1e-1 is 39.42%
Percent of |updates| larger than 1e-2 is 96.28%
Percent of |updates| larger than 1e-3 is 99.77%
Time: 0.33 h, optimization step 32 ended!
****************************************************************************************************
Optimization step 33 start ...
Metropolis-Hasting Sampling Acceptance: 3.43%
The number of unique states of this sampling is 976
The number of total states of this sampling is 100000
The sampling costs 0.55 min.
The maximum magnitude of abandoned Hamiltonian matrix elemet:  0.0
!!! The Standard Method !!!
Variance: 0.17421
VMC energy: -74.24853872 +/- 0.00132 a.u.
Imaginary part of VMC energy: -1.71e-03
Current energy ratio: 0.00195 a.u.
!!! The Logpsi-Prob Method !!!
Variance: 0.09896
VMC energy: -74.25129192 +/- 0.01007 a.u.
Imaginary part of VMC energy: -4.39e-04
E_loc+E_nuc of 10 most probable configuration:
 [-74.46393557 -74.4327894  -74.3829334  -74.35749651 -74.33325905
 -74.44313869 -74.50258014 -74.49243451 -74.44443557 -74.49247529]
Largest 5 Local Energy:
 [-82.87323497 -83.10434315 -85.08993009 -87.56038939 -97.76975374]
Energy calculation costs 0.03 min.
The best energy: -74.25129192 a.u.
The matrix building cost 0.00 min.
Solve the matrix equation cost 0.00 min.
Learning Rate of Current step is 1.00e-01
!!! Convergency Info !!!
This updates step cost 0.58 min.
Energy change: -0.01420274
Percent of |grad| larger than 1e-1 is 0.00%
Percent of |grad| larger than 1e-2 is 47.67%
Percent of |grad| larger than 1e-3 is 98.84%
Percent of |grad| larger than 1e-4 is 99.53%
Percent of |updates| larger than 1e-1 is 36.74%
Percent of |updates| larger than 1e-2 is 97.21%
Percent of |updates| larger than 1e-3 is 99.88%
Time: 0.34 h, optimization step 33 ended!
****************************************************************************************************
Optimization step 34 start ...
Metropolis-Hasting Sampling Acceptance: 3.26%
The number of unique states of this sampling is 927
The number of total states of this sampling is 100000
The sampling costs 0.54 min.
The maximum magnitude of abandoned Hamiltonian matrix elemet:  0.0
!!! The Standard Method !!!
Variance: 0.15142
VMC energy: -74.26021707 +/- 0.00123 a.u.
Imaginary part of VMC energy: -5.79e-04
Current energy ratio: 0.00169 a.u.
!!! The Logpsi-Prob Method !!!
Variance: 0.09212
VMC energy: -74.26472325 +/- 0.00997 a.u.
Imaginary part of VMC energy: -1.41e-04
E_loc+E_nuc of 10 most probable configuration:
 [-74.43355537 -74.46868735 -74.38627213 -74.36192354 -74.33811307
 -74.45168043 -74.50626583 -74.49618217 -74.44711659 -74.49717303]
Largest 5 Local Energy:
 [-78.8416156  -79.3114885  -79.41394301 -81.20899614 -87.20126437]
Energy calculation costs 0.03 min.
The best energy: -74.26472325 a.u.
The matrix building cost 0.00 min.
Solve the matrix equation cost 0.00 min.
Learning Rate of Current step is 1.00e-01
!!! Convergency Info !!!
This updates step cost 0.58 min.
Energy change: -0.01343133
Percent of |grad| larger than 1e-1 is 0.00%
Percent of |grad| larger than 1e-2 is 47.33%
Percent of |grad| larger than 1e-3 is 98.02%
Percent of |grad| larger than 1e-4 is 99.53%
Percent of |updates| larger than 1e-1 is 37.56%
Percent of |updates| larger than 1e-2 is 97.33%
Percent of |updates| larger than 1e-3 is 99.77%
Time: 0.35 h, optimization step 34 ended!
****************************************************************************************************
Optimization step 35 start ...
Metropolis-Hasting Sampling Acceptance: 3.14%
The number of unique states of this sampling is 871
The number of total states of this sampling is 100000
The sampling costs 0.52 min.
The maximum magnitude of abandoned Hamiltonian matrix elemet:  0.0
!!! The Standard Method !!!
Variance: 0.13057
VMC energy: -74.27550146 +/- 0.00114 a.u.
Imaginary part of VMC energy: -8.36e-06
Current energy ratio: 0.00146 a.u.
!!! The Logpsi-Prob Method !!!
Variance: 0.08409
VMC energy: -74.27793594 +/- 0.00983 a.u.
Imaginary part of VMC energy: -5.36e-05
E_loc+E_nuc of 10 most probable configuration:
 [-74.4350923  -74.47275873 -74.38951825 -74.36617084 -74.34218237
 -74.45979358 -74.50982489 -74.49983915 -74.44959353 -74.5013691 ]
Largest 5 Local Energy:
 [ -79.73371927  -80.32223843  -81.89342528  -83.83537448 -105.15707969]
Energy calculation costs 0.03 min.
The best energy: -74.27793594 a.u.
The matrix building cost 0.00 min.
Solve the matrix equation cost 0.00 min.
Learning Rate of Current step is 1.00e-01
!!! Convergency Info !!!
This updates step cost 0.57 min.
Energy change: -0.01321270
Percent of |grad| larger than 1e-1 is 0.00%
Percent of |grad| larger than 1e-2 is 48.72%
Percent of |grad| larger than 1e-3 is 96.05%
Percent of |grad| larger than 1e-4 is 99.53%
Percent of |updates| larger than 1e-1 is 32.91%
Percent of |updates| larger than 1e-2 is 95.93%
Percent of |updates| larger than 1e-3 is 99.88%
Time: 0.36 h, optimization step 35 ended!
****************************************************************************************************
Optimization step 36 start ...
Metropolis-Hasting Sampling Acceptance: 2.98%
The number of unique states of this sampling is 831
The number of total states of this sampling is 100000
The sampling costs 0.53 min.
The maximum magnitude of abandoned Hamiltonian matrix elemet:  0.0
!!! The Standard Method !!!
Variance: 0.12512
VMC energy: -74.28764085 +/- 0.00112 a.u.
Imaginary part of VMC energy: -2.38e-04
Current energy ratio: 0.00140 a.u.
!!! The Logpsi-Prob Method !!!
Variance: 0.07974
VMC energy: -74.28968149 +/- 0.00980 a.u.
Imaginary part of VMC energy: -1.20e-04
E_loc+E_nuc of 10 most probable configuration:
 [-74.436629   -74.47639843 -74.39281769 -74.36946651 -74.3461715
 -74.46721839 -74.51273982 -74.45194828 -74.50310934 -74.50487   ]
Largest 5 Local Energy:
 [-80.11646624 -80.52422032 -80.61639625 -81.38375062 -83.7164126 ]
Energy calculation costs 0.03 min.
The best energy: -74.28968149 a.u.
The matrix building cost 0.00 min.
Solve the matrix equation cost 0.00 min.
Learning Rate of Current step is 1.00e-01
!!! Convergency Info !!!
This updates step cost 0.57 min.
Energy change: -0.01174555
Percent of |grad| larger than 1e-1 is 0.00%
Percent of |grad| larger than 1e-2 is 49.30%
Percent of |grad| larger than 1e-3 is 95.81%
Percent of |grad| larger than 1e-4 is 99.53%
Percent of |updates| larger than 1e-1 is 32.67%
Percent of |updates| larger than 1e-2 is 96.16%
Percent of |updates| larger than 1e-3 is 99.65%
Time: 0.37 h, optimization step 36 ended!
****************************************************************************************************
Optimization step 37 start ...
Metropolis-Hasting Sampling Acceptance: 2.90%
The number of unique states of this sampling is 811
The number of total states of this sampling is 100000
The sampling costs 0.54 min.
The maximum magnitude of abandoned Hamiltonian matrix elemet:  0.0
!!! The Standard Method !!!
Variance: 0.11342
VMC energy: -74.29838778 +/- 0.00106 a.u.
Imaginary part of VMC energy: -1.85e-04
Current energy ratio: 0.00127 a.u.
!!! The Logpsi-Prob Method !!!
Variance: 0.07451
VMC energy: -74.30142568 +/- 0.00959 a.u.
Imaginary part of VMC energy: -8.49e-05
E_loc+E_nuc of 10 most probable configuration:
 [-74.43696363 -74.47995694 -74.39621576 -74.37248027 -74.34974176
 -74.47428058 -74.51542548 -74.45421018 -74.50606732 -74.50805942]
Largest 5 Local Energy:
 [-80.75705859 -80.58852572 -82.32562165 -83.79747445 -87.78577697]
Energy calculation costs 0.03 min.
The best energy: -74.30142568 a.u.
The matrix building cost 0.00 min.
Solve the matrix equation cost 0.00 min.
Learning Rate of Current step is 1.00e-01
!!! Convergency Info !!!
This updates step cost 0.58 min.
Energy change: -0.01174418
Percent of |grad| larger than 1e-1 is 0.00%
Percent of |grad| larger than 1e-2 is 49.19%
Percent of |grad| larger than 1e-3 is 96.40%
Percent of |grad| larger than 1e-4 is 99.53%
Percent of |updates| larger than 1e-1 is 29.77%
Percent of |updates| larger than 1e-2 is 97.67%
Percent of |updates| larger than 1e-3 is 100.00%
Time: 0.38 h, optimization step 37 ended!
****************************************************************************************************
Optimization step 38 start ...
Metropolis-Hasting Sampling Acceptance: 2.78%
The number of unique states of this sampling is 783
The number of total states of this sampling is 100000
The sampling costs 0.53 min.
The maximum magnitude of abandoned Hamiltonian matrix elemet:  0.0
!!! The Standard Method !!!
Variance: 0.11707
VMC energy: -74.30842653 +/- 0.00108 a.u.
Imaginary part of VMC energy: -7.26e-04
Current energy ratio: 0.00131 a.u.
!!! The Logpsi-Prob Method !!!
Variance: 0.07182
VMC energy: -74.31209668 +/- 0.00958 a.u.
Imaginary part of VMC energy: -2.82e-04
E_loc+E_nuc of 10 most probable configuration:
 [-74.43833347 -74.4832914  -74.39951113 -74.37530069 -74.35282815
 -74.4801055  -74.51759032 -74.4562865  -74.50873057 -74.51134099]
Largest 5 Local Energy:
 [-80.4487251  -80.37820886 -81.20549    -82.73286334 -97.21747007]
Energy calculation costs 0.03 min.
The best energy: -74.31209668 a.u.
The matrix building cost 0.00 min.
Solve the matrix equation cost 0.00 min.
Learning Rate of Current step is 1.00e-01
!!! Convergency Info !!!
This updates step cost 0.57 min.
Energy change: -0.01067100
Percent of |grad| larger than 1e-1 is 0.00%
Percent of |grad| larger than 1e-2 is 49.07%
Percent of |grad| larger than 1e-3 is 95.47%
Percent of |grad| larger than 1e-4 is 99.53%
Percent of |updates| larger than 1e-1 is 29.19%
Percent of |updates| larger than 1e-2 is 97.56%
Percent of |updates| larger than 1e-3 is 99.88%
Time: 0.39 h, optimization step 38 ended!
****************************************************************************************************
Optimization step 39 start ...
Metropolis-Hasting Sampling Acceptance: 2.66%
The number of unique states of this sampling is 741
The number of total states of this sampling is 100000
The sampling costs 0.53 min.
The maximum magnitude of abandoned Hamiltonian matrix elemet:  0.0
!!! The Standard Method !!!
Variance: 0.10523
VMC energy: -74.31911313 +/- 0.00103 a.u.
Imaginary part of VMC energy: -9.80e-05
Current energy ratio: 0.00118 a.u.
!!! The Logpsi-Prob Method !!!
Variance: 0.06634
VMC energy: -74.32277334 +/- 0.00946 a.u.
Imaginary part of VMC energy: -2.32e-04
E_loc+E_nuc of 10 most probable configuration:
 [-74.43961468 -74.48597623 -74.40283253 -74.37835699 -74.35503899
 -74.48589488 -74.52022966 -74.45840784 -74.51141568 -74.51440754]
Largest 5 Local Energy:
 [-79.9081902  -80.30790663 -80.62008158 -80.78370679 -83.79164127]
Energy calculation costs 0.03 min.
The best energy: -74.32277334 a.u.
The matrix building cost 0.00 min.
Solve the matrix equation cost 0.00 min.
Learning Rate of Current step is 1.00e-01
!!! Convergency Info !!!
This updates step cost 0.57 min.
Energy change: -0.01067666
Percent of |grad| larger than 1e-1 is 0.00%
Percent of |grad| larger than 1e-2 is 49.65%
Percent of |grad| larger than 1e-3 is 94.53%
Percent of |grad| larger than 1e-4 is 99.53%
Percent of |updates| larger than 1e-1 is 29.07%
Percent of |updates| larger than 1e-2 is 96.28%
Percent of |updates| larger than 1e-3 is 99.77%
Time: 0.40 h, optimization step 39 ended!
****************************************************************************************************
Optimization step 40 start ...
Metropolis-Hasting Sampling Acceptance: 2.56%
The number of unique states of this sampling is 739
The number of total states of this sampling is 100000
The sampling costs 0.53 min.
The maximum magnitude of abandoned Hamiltonian matrix elemet:  0.0
!!! The Standard Method !!!
Variance: 0.14190
VMC energy: -74.32995269 +/- 0.00119 a.u.
Imaginary part of VMC energy: 3.09e-04
Current energy ratio: 0.00159 a.u.
!!! The Logpsi-Prob Method !!!
Variance: 0.06609
VMC energy: -74.33230779 +/- 0.00946 a.u.
Imaginary part of VMC energy: -3.33e-04
E_loc+E_nuc of 10 most probable configuration:
 [-74.44089662 -74.48824925 -74.40574431 -74.38048521 -74.35787015
 -74.49145771 -74.46029629 -74.52292872 -74.51391427 -74.517318  ]
Largest 5 Local Energy:
 [-78.44075845 -79.58769785 -83.32561509 -82.98506065 -88.25887427]
Energy calculation costs 0.03 min.
The best energy: -74.33230779 a.u.
The matrix building cost 0.00 min.
Solve the matrix equation cost 0.00 min.
Learning Rate of Current step is 1.00e-01
!!! Convergency Info !!!
This updates step cost 0.58 min.
Energy change: -0.00953445
Percent of |grad| larger than 1e-1 is 0.00%
Percent of |grad| larger than 1e-2 is 50.12%
Percent of |grad| larger than 1e-3 is 94.42%
Percent of |grad| larger than 1e-4 is 99.53%
Percent of |updates| larger than 1e-1 is 27.56%
Percent of |updates| larger than 1e-2 is 96.86%
Percent of |updates| larger than 1e-3 is 99.65%
Time: 0.41 h, optimization step 40 ended!
****************************************************************************************************
Optimization step 41 start ...
Metropolis-Hasting Sampling Acceptance: 2.46%
The number of unique states of this sampling is 705
The number of total states of this sampling is 100000
The sampling costs 0.53 min.
The maximum magnitude of abandoned Hamiltonian matrix elemet:  0.0
!!! The Standard Method !!!
Variance: 0.11220
VMC energy: -74.34199831 +/- 0.00106 a.u.
Imaginary part of VMC energy: -8.77e-04
Current energy ratio: 0.00125 a.u.
!!! The Logpsi-Prob Method !!!
Variance: 0.06050
VMC energy: -74.34268764 +/- 0.00926 a.u.
Imaginary part of VMC energy: -1.32e-04
E_loc+E_nuc of 10 most probable configuration:
 [-74.44224732 -74.49036137 -74.40867664 -74.3823294  -74.36050213
 -74.49658262 -74.46215438 -74.52461344 -74.51602313 -74.52013012]
Largest 5 Local Energy:
 [-79.74031998 -82.51052378 -83.16361987 -82.67526584 -94.39178534]
Energy calculation costs 0.04 min.
The best energy: -74.34268764 a.u.
The matrix building cost 0.00 min.
Solve the matrix equation cost 0.00 min.
Learning Rate of Current step is 1.00e-01
!!! Convergency Info !!!
This updates step cost 0.58 min.
Energy change: -0.01037985
Percent of |grad| larger than 1e-1 is 0.00%
Percent of |grad| larger than 1e-2 is 50.23%
Percent of |grad| larger than 1e-3 is 93.49%
Percent of |grad| larger than 1e-4 is 99.53%
Percent of |updates| larger than 1e-1 is 27.09%
Percent of |updates| larger than 1e-2 is 98.49%
Percent of |updates| larger than 1e-3 is 99.88%
Time: 0.42 h, optimization step 41 ended!
****************************************************************************************************
Optimization step 42 start ...
Metropolis-Hasting Sampling Acceptance: 2.36%
The number of unique states of this sampling is 679
The number of total states of this sampling is 100000
The sampling costs 0.53 min.
The maximum magnitude of abandoned Hamiltonian matrix elemet:  0.0
!!! The Standard Method !!!
Variance: 0.10057
VMC energy: -74.35001834 +/- 0.00100 a.u.
Imaginary part of VMC energy: 3.90e-05
Current energy ratio: 0.00112 a.u.
!!! The Logpsi-Prob Method !!!
Variance: 0.05570
VMC energy: -74.35150122 +/- 0.00906 a.u.
Imaginary part of VMC energy: -1.28e-04
E_loc+E_nuc of 10 most probable configuration:
 [-74.44373147 -74.4924932  -74.41126974 -74.3852782  -74.36258024
 -74.50115644 -74.46389609 -74.52647438 -74.51795138 -74.5225836 ]
Largest 5 Local Energy:
 [-78.82021282 -78.94109636 -82.61034368 -84.66376476 -85.29646653]
Energy calculation costs 0.03 min.
The best energy: -74.35150122 a.u.
The matrix building cost 0.00 min.
Solve the matrix equation cost 0.01 min.
Learning Rate of Current step is 1.00e-01
!!! Convergency Info !!!
This updates step cost 0.57 min.
Energy change: -0.00881358
Percent of |grad| larger than 1e-1 is 0.00%
Percent of |grad| larger than 1e-2 is 50.12%
Percent of |grad| larger than 1e-3 is 92.56%
Percent of |grad| larger than 1e-4 is 99.53%
Percent of |updates| larger than 1e-1 is 25.35%
Percent of |updates| larger than 1e-2 is 97.21%
Percent of |updates| larger than 1e-3 is 99.65%
Time: 0.43 h, optimization step 42 ended!
****************************************************************************************************
Optimization step 43 start ...
Metropolis-Hasting Sampling Acceptance: 2.30%
The number of unique states of this sampling is 674
The number of total states of this sampling is 100000
The sampling costs 0.53 min.
The maximum magnitude of abandoned Hamiltonian matrix elemet:  0.0
!!! The Standard Method !!!
Variance: 0.09278
VMC energy: -74.35760376 +/- 0.00096 a.u.
Imaginary part of VMC energy: 5.13e-04
Current energy ratio: 0.00104 a.u.
!!! The Logpsi-Prob Method !!!
Variance: 0.05530
VMC energy: -74.35974289 +/- 0.00906 a.u.
Imaginary part of VMC energy: -2.36e-04
E_loc+E_nuc of 10 most probable configuration:
 [-74.4450052  -74.49452037 -74.41366693 -74.38803989 -74.36405232
 -74.50459283 -74.46542157 -74.52842464 -74.51955532 -74.52488614]
Largest 5 Local Energy:
 [-77.98780973 -78.11232101 -78.94660222 -80.54518883 -88.06516815]
Energy calculation costs 0.03 min.
The best energy: -74.35974289 a.u.
The matrix building cost 0.00 min.
Solve the matrix equation cost 0.01 min.
Learning Rate of Current step is 1.00e-01
!!! Convergency Info !!!
This updates step cost 0.57 min.
Energy change: -0.00824168
Percent of |grad| larger than 1e-1 is 0.00%
Percent of |grad| larger than 1e-2 is 49.77%
Percent of |grad| larger than 1e-3 is 90.81%
Percent of |grad| larger than 1e-4 is 99.53%
Percent of |updates| larger than 1e-1 is 24.53%
Percent of |updates| larger than 1e-2 is 95.81%
Percent of |updates| larger than 1e-3 is 99.77%
Time: 0.44 h, optimization step 43 ended!
****************************************************************************************************
Optimization step 44 start ...
Metropolis-Hasting Sampling Acceptance: 2.22%
The number of unique states of this sampling is 670
The number of total states of this sampling is 100000
The sampling costs 0.53 min.
The maximum magnitude of abandoned Hamiltonian matrix elemet:  0.0
!!! The Standard Method !!!
Variance: 0.28593
VMC energy: -74.36649405 +/- 0.00169 a.u.
Imaginary part of VMC energy: 1.26e-03
Current energy ratio: 0.00320 a.u.
!!! The Logpsi-Prob Method !!!
Variance: 0.05388
VMC energy: -74.36819934 +/- 0.00897 a.u.
Imaginary part of VMC energy: -8.47e-05
E_loc+E_nuc of 10 most probable configuration:
 [-74.44632206 -74.38983971 -74.49585522 -74.416197   -74.36632856
 -74.50821417 -74.46672506 -74.52947665 -74.52128598 -74.52695467]
Largest 5 Local Energy:
 [ -82.41224031  -83.85065723  -85.17244899  -85.49916237 -115.26929703]
Energy calculation costs 0.03 min.
The best energy: -74.36819934 a.u.
The matrix building cost 0.00 min.
Solve the matrix equation cost 0.01 min.
Learning Rate of Current step is 1.00e-01
!!! Convergency Info !!!
This updates step cost 0.57 min.
Energy change: -0.00845645
Percent of |grad| larger than 1e-1 is 0.00%
Percent of |grad| larger than 1e-2 is 49.30%
Percent of |grad| larger than 1e-3 is 90.12%
Percent of |grad| larger than 1e-4 is 99.53%
Percent of |updates| larger than 1e-1 is 24.07%
Percent of |updates| larger than 1e-2 is 95.47%
Percent of |updates| larger than 1e-3 is 99.88%
Time: 0.45 h, optimization step 44 ended!
****************************************************************************************************
Optimization step 45 start ...
Metropolis-Hasting Sampling Acceptance: 2.15%
The number of unique states of this sampling is 662
The number of total states of this sampling is 100000
The sampling costs 0.52 min.
The maximum magnitude of abandoned Hamiltonian matrix elemet:  0.0
!!! The Standard Method !!!
Variance: 0.11787
VMC energy: -74.37294293 +/- 0.00109 a.u.
Imaginary part of VMC energy: 5.21e-04
Current energy ratio: 0.00132 a.u.
!!! The Logpsi-Prob Method !!!
Variance: 0.05170
VMC energy: -74.37596920 +/- 0.00884 a.u.
Imaginary part of VMC energy: -3.42e-05
E_loc+E_nuc of 10 most probable configuration:
 [-74.44780602 -74.39195143 -74.4184778  -74.49774862 -74.36877784
 -74.51265563 -74.46807172 -74.53081065 -74.52261957 -74.5289543 ]
Largest 5 Local Energy:
 [-78.59466607 -81.2893128  -84.7896732  -84.63055874 -85.28113948]
Energy calculation costs 0.03 min.
The best energy: -74.37596920 a.u.
The matrix building cost 0.00 min.
Solve the matrix equation cost 0.01 min.
Learning Rate of Current step is 1.00e-01
!!! Convergency Info !!!
This updates step cost 0.57 min.
Energy change: -0.00776985
Percent of |grad| larger than 1e-1 is 0.00%
Percent of |grad| larger than 1e-2 is 48.84%
Percent of |grad| larger than 1e-3 is 89.42%
Percent of |grad| larger than 1e-4 is 99.42%
Percent of |updates| larger than 1e-1 is 24.65%
Percent of |updates| larger than 1e-2 is 96.16%
Percent of |updates| larger than 1e-3 is 99.88%
Time: 0.45 h, optimization step 45 ended!
****************************************************************************************************
Optimization step 46 start ...
Metropolis-Hasting Sampling Acceptance: 2.08%
The number of unique states of this sampling is 648
The number of total states of this sampling is 100000
The sampling costs 0.53 min.
The maximum magnitude of abandoned Hamiltonian matrix elemet:  0.0
!!! The Standard Method !!!
Variance: 0.07788
VMC energy: -74.38296658 +/- 0.00088 a.u.
Imaginary part of VMC energy: 7.02e-04
Current energy ratio: 0.00087 a.u.
!!! The Logpsi-Prob Method !!!
Variance: 0.04747
VMC energy: -74.38368195 +/- 0.00856 a.u.
Imaginary part of VMC energy: 2.73e-04
E_loc+E_nuc of 10 most probable configuration:
 [-74.44937527 -74.39430888 -74.42058622 -74.49925501 -74.3705368
 -74.51679294 -74.46940825 -74.53224636 -74.52375094 -74.53098553]
Largest 5 Local Energy:
 [-81.43475535 -81.52194027 -81.71445914 -83.75075448 -87.44273897]
Energy calculation costs 0.03 min.
The best energy: -74.38368195 a.u.
The matrix building cost 0.00 min.
Solve the matrix equation cost 0.01 min.
Learning Rate of Current step is 1.00e-01
!!! Convergency Info !!!
This updates step cost 0.57 min.
Energy change: -0.00771276
Percent of |grad| larger than 1e-1 is 0.00%
Percent of |grad| larger than 1e-2 is 48.26%
Percent of |grad| larger than 1e-3 is 88.84%
Percent of |grad| larger than 1e-4 is 97.91%
Percent of |grad| larger than 1e-5 is 99.53%
Percent of |updates| larger than 1e-1 is 22.91%
Percent of |updates| larger than 1e-2 is 93.02%
Percent of |updates| larger than 1e-3 is 99.65%
Time: 0.46 h, optimization step 46 ended!
****************************************************************************************************
Optimization step 47 start ...
Metropolis-Hasting Sampling Acceptance: 2.00%
The number of unique states of this sampling is 625
The number of total states of this sampling is 100000
The sampling costs 0.52 min.
The maximum magnitude of abandoned Hamiltonian matrix elemet:  0.0
!!! The Standard Method !!!
Variance: 0.10017
VMC energy: -74.38828718 +/- 0.00100 a.u.
Imaginary part of VMC energy: 3.79e-05
Current energy ratio: 0.00112 a.u.
!!! The Logpsi-Prob Method !!!
Variance: 0.04537
VMC energy: -74.39059047 +/- 0.00852 a.u.
Imaginary part of VMC energy: -9.66e-05
E_loc+E_nuc of 10 most probable configuration:
 [-74.3961021  -74.45058003 -74.42262131 -74.37323259 -74.50059883
 -74.52071918 -74.47069983 -74.53341482 -74.52466798 -74.53260577]
Largest 5 Local Energy:
 [-78.10049045 -78.60731958 -76.70430976 -79.31628638 -82.58199913]
Energy calculation costs 0.03 min.
The best energy: -74.39059047 a.u.
The matrix building cost 0.00 min.
Solve the matrix equation cost 0.01 min.
Learning Rate of Current step is 1.00e-01
!!! Convergency Info !!!
This updates step cost 0.56 min.
Energy change: -0.00690852
Percent of |grad| larger than 1e-1 is 0.00%
Percent of |grad| larger than 1e-2 is 48.02%
Percent of |grad| larger than 1e-3 is 88.37%
Percent of |grad| larger than 1e-4 is 99.42%
Percent of |updates| larger than 1e-1 is 22.09%
Percent of |updates| larger than 1e-2 is 96.40%
Percent of |updates| larger than 1e-3 is 99.88%
Time: 0.47 h, optimization step 47 ended!
****************************************************************************************************
Optimization step 48 start ...
Metropolis-Hasting Sampling Acceptance: 1.94%
The number of unique states of this sampling is 584
The number of total states of this sampling is 100000
The sampling costs 0.54 min.
The maximum magnitude of abandoned Hamiltonian matrix elemet:  0.0
!!! The Standard Method !!!
Variance: 0.07156
VMC energy: -74.39707600 +/- 0.00085 a.u.
Imaginary part of VMC energy: 5.07e-04
Current energy ratio: 0.00080 a.u.
!!! The Logpsi-Prob Method !!!
Variance: 0.04267
VMC energy: -74.39751302 +/- 0.00855 a.u.
Imaginary part of VMC energy: 1.66e-04
E_loc+E_nuc of 10 most probable configuration:
 [-74.39830017 -74.45176105 -74.42442194 -74.37515088 -74.50211893
 -74.52485117 -74.47198893 -74.53481488 -74.52570982 -74.5340959 ]
Largest 5 Local Energy:
 [-77.36902416 -79.37904985 -83.30026643 -85.38903408 -86.66250408]
Energy calculation costs 0.03 min.
The best energy: -74.39751302 a.u.
The matrix building cost 0.00 min.
Solve the matrix equation cost 0.01 min.
Learning Rate of Current step is 1.00e-01
!!! Convergency Info !!!
This updates step cost 0.58 min.
Energy change: -0.00692255
Percent of |grad| larger than 1e-1 is 0.00%
Percent of |grad| larger than 1e-2 is 47.67%
Percent of |grad| larger than 1e-3 is 88.60%
Percent of |grad| larger than 1e-4 is 96.74%
[...]
Percent of |grad| larger than 1e-2 is 4.42%
Percent of |grad| larger than 1e-3 is 20.00%
Percent of |grad| larger than 1e-4 is 73.84%
Percent of |grad| larger than 1e-5 is 91.05%
Percent of |grad| larger than 1e-6 is 99.30%
Percent of |updates| larger than 1e-1 is 0.00%
Percent of |updates| larger than 1e-2 is 1.05%
Percent of |updates| larger than 1e-3 is 59.53%
Percent of |updates| larger than 1e-4 is 98.60%
Percent of |updates| larger than 1e-5 is 100.00%
Time: 4.72 h, optimization step 1990 ended!
****************************************************************************************************
Optimization step 1991 start ...
|Psi_hf|/|Psi_max|: 1.000
Calculate Local Energy and Connected Space of Core Space costs 0.08 min
Number of selected states from old core space:  1775
The length of unique conn space:  29
Calculate Local Energy of Selected Conn Space costs 0.02 min
The length of new core space:  1804
The maximum magnitude of abandoned Hamiltonian matrix elemet:  0
!!! The Logpsi-Prob Method !!!
Variance: 0.00283
VMC energy: -74.68949168 +/- 0.00125 a.u.
Imaginary part of VMC energy: -1.05e-07
Variance: 0.00283
Perturbative correction: -0.00093441
Perturbative corrected VMC energy: -74.69042610
E_loc+E_nuc of 10 most probable configuration:
 [-74.68935746 -74.68906358 -74.68991967 -74.68891316 -74.68994619
 -74.68948082 -74.68966216 -74.68903199 -74.68955785 -74.68982044]
Largest 5 Local Energy:
 [-455.75415831 -443.81829646  -63.32862784 -760.9998196   951.0033336 ]
The best energy: -74.68970154 a.u.
The matrix building cost 0.00 min.
cg process: convergence to tolerance not achieved. 1 cg processes have been done.
Solve the matrix equation cost 0.03 min.
Learning Rate of Current step is 2.00e-01
!!! Convergency Info !!!
This updates step cost 0.13 min.
Energy change: -0.00010859
Percent of |grad| larger than 1e-1 is 1.51%
Percent of |grad| larger than 1e-2 is 4.30%
Percent of |grad| larger than 1e-3 is 17.56%
Percent of |grad| larger than 1e-4 is 68.37%
Percent of |grad| larger than 1e-5 is 91.28%
Percent of |grad| larger than 1e-6 is 99.30%
Percent of |updates| larger than 1e-1 is 0.00%
Percent of |updates| larger than 1e-2 is 1.05%
Percent of |updates| larger than 1e-3 is 55.58%
Percent of |updates| larger than 1e-4 is 98.95%
Percent of |updates| larger than 1e-5 is 100.00%
Time: 4.72 h, optimization step 1991 ended!
****************************************************************************************************
Optimization step 1992 start ...
|Psi_hf|/|Psi_max|: 1.000
Calculate Local Energy and Connected Space of Core Space costs 0.08 min
Number of selected states from old core space:  1781
The length of unique conn space:  8
Calculate Local Energy of Selected Conn Space costs 0.02 min
The length of new core space:  1789
The maximum magnitude of abandoned Hamiltonian matrix elemet:  0
!!! The Logpsi-Prob Method !!!
Variance: 0.00275
VMC energy: -74.68956128 +/- 0.00124 a.u.
Imaginary part of VMC energy: -1.22e-07
Variance: 0.00275
Perturbative correction: -0.00085974
Perturbative corrected VMC energy: -74.69042101
E_loc+E_nuc of 10 most probable configuration:
 [-74.68939818 -74.68906283 -74.6898881  -74.68891975 -74.68992012
 -74.68946781 -74.68969486 -74.68898237 -74.68957876 -74.68979032]
Largest 5 Local Energy:
 [-455.24548407 -439.01503405  -60.4380637  -775.66090724  945.76549615]
The best energy: -74.68970154 a.u.
The matrix building cost 0.00 min.
cg process: convergence to tolerance not achieved. 1 cg processes have been done.
Solve the matrix equation cost 0.03 min.
Learning Rate of Current step is 2.00e-01
!!! Convergency Info !!!
This updates step cost 0.14 min.
Energy change: -0.00006960
Percent of |grad| larger than 1e-1 is 1.51%
Percent of |grad| larger than 1e-2 is 4.19%
Percent of |grad| larger than 1e-3 is 14.65%
Percent of |grad| larger than 1e-4 is 62.09%
Percent of |grad| larger than 1e-5 is 89.42%
Percent of |grad| larger than 1e-6 is 98.95%
Percent of |grad| larger than 1e-7 is 100.00%
Percent of |updates| larger than 1e-1 is 0.00%
Percent of |updates| larger than 1e-2 is 1.40%
Percent of |updates| larger than 1e-3 is 58.14%
Percent of |updates| larger than 1e-4 is 99.30%
Time: 4.72 h, optimization step 1992 ended!
****************************************************************************************************
Optimization step 1993 start ...
|Psi_hf|/|Psi_max|: 1.000
Calculate Local Energy and Connected Space of Core Space costs 0.08 min
Number of selected states from old core space:  1780
The length of unique conn space:  20
Calculate Local Energy of Selected Conn Space costs 0.02 min
The length of new core space:  1800
The maximum magnitude of abandoned Hamiltonian matrix elemet:  0
!!! The Logpsi-Prob Method !!!
Variance: 0.00271
VMC energy: -74.68960344 +/- 0.00123 a.u.
Imaginary part of VMC energy: -1.00e-07
Variance: 0.00271
Perturbative correction: -0.00081278
Perturbative corrected VMC energy: -74.69041623
E_loc+E_nuc of 10 most probable configuration:
 [-74.68926062 -74.68896927 -74.68987096 -74.68893085 -74.68994011
 -74.68947766 -74.68962838 -74.6889337  -74.68953703 -74.68983346]
Largest 5 Local Energy:
 [-456.60153543 -443.86829011  -65.07788448 -757.91464479  955.01120487]
The best energy: -74.68970154 a.u.
The matrix building cost 0.00 min.
cg process: convergence to tolerance not achieved. 1 cg processes have been done.
Solve the matrix equation cost 0.03 min.
Learning Rate of Current step is 2.00e-01
!!! Convergency Info !!!
This updates step cost 0.13 min.
Energy change: -0.00004217
Percent of |grad| larger than 1e-1 is 1.51%
Percent of |grad| larger than 1e-2 is 4.19%
Percent of |grad| larger than 1e-3 is 15.12%
Percent of |grad| larger than 1e-4 is 61.28%
Percent of |grad| larger than 1e-5 is 90.58%
Percent of |grad| larger than 1e-6 is 99.53%
Percent of |updates| larger than 1e-1 is 0.00%
Percent of |updates| larger than 1e-2 is 1.05%
Percent of |updates| larger than 1e-3 is 55.58%
Percent of |updates| larger than 1e-4 is 98.14%
Percent of |updates| larger than 1e-5 is 100.00%
Time: 4.72 h, optimization step 1993 ended!
****************************************************************************************************
Optimization step 1994 start ...
|Psi_hf|/|Psi_max|: 1.000
Calculate Local Energy and Connected Space of Core Space costs 0.08 min
Number of selected states from old core space:  1773
The length of unique conn space:  7
Calculate Local Energy of Selected Conn Space costs 0.02 min
The length of new core space:  1780
The maximum magnitude of abandoned Hamiltonian matrix elemet:  0
!!! The Logpsi-Prob Method !!!
Variance: 0.00267
VMC energy: -74.68963452 +/- 0.00123 a.u.
Imaginary part of VMC energy: -1.20e-07
Variance: 0.00267
Perturbative correction: -0.00078378
Perturbative corrected VMC energy: -74.69041830
E_loc+E_nuc of 10 most probable configuration:
 [-74.68936956 -74.68900518 -74.68984874 -74.688942   -74.68992661
 -74.6894956  -74.6896867  -74.68893125 -74.68955992 -74.68979626]
Largest 5 Local Energy:
 [-455.76064109 -438.8552019   -59.53120662 -771.61356287  947.66364741]
The best energy: -74.68970154 a.u.
The matrix building cost 0.00 min.
cg process: convergence to tolerance not achieved. 1 cg processes have been done.
Solve the matrix equation cost 0.03 min.
Learning Rate of Current step is 2.00e-01
!!! Convergency Info !!!
This updates step cost 0.14 min.
Energy change: -0.00003108
Percent of |grad| larger than 1e-1 is 1.51%
Percent of |grad| larger than 1e-2 is 3.02%
Percent of |grad| larger than 1e-3 is 16.05%
Percent of |grad| larger than 1e-4 is 54.65%
Percent of |grad| larger than 1e-5 is 88.95%
Percent of |grad| larger than 1e-6 is 98.60%
Percent of |grad| larger than 1e-7 is 100.00%
Percent of |updates| larger than 1e-1 is 0.00%
Percent of |updates| larger than 1e-2 is 1.16%
Percent of |updates| larger than 1e-3 is 56.51%
Percent of |updates| larger than 1e-4 is 98.84%
Percent of |updates| larger than 1e-5 is 100.00%
Time: 4.73 h, optimization step 1994 ended!
****************************************************************************************************
Optimization step 1995 start ...
|Psi_hf|/|Psi_max|: 1.000
Calculate Local Energy and Connected Space of Core Space costs 0.08 min
Number of selected states from old core space:  1768
The length of unique conn space:  19
Calculate Local Energy of Selected Conn Space costs 0.02 min
The length of new core space:  1787
The maximum magnitude of abandoned Hamiltonian matrix elemet:  0
!!! The Logpsi-Prob Method !!!
Variance: 0.00270
VMC energy: -74.68962816 +/- 0.00123 a.u.
Imaginary part of VMC energy: -1.22e-07
Variance: 0.00270
Perturbative correction: -0.00079217
Perturbative corrected VMC energy: -74.69042033
E_loc+E_nuc of 10 most probable configuration:
 [-74.68915031 -74.6888783  -74.68984143 -74.6889428  -74.6899503
 -74.6894736  -74.68956597 -74.68883944 -74.68951    -74.68985068]
Largest 5 Local Energy:
 [-456.63579891 -445.14697754  -62.07950698 -753.03944674  956.38220372]
The best energy: -74.68970154 a.u.
The matrix building cost 0.00 min.
cg process: convergence to tolerance not achieved. 1 cg processes have been done.
Solve the matrix equation cost 0.03 min.
Learning Rate of Current step is 2.00e-01
!!! Convergency Info !!!
This updates step cost 0.16 min.
Energy change: 0.00000636
Percent of |grad| larger than 1e-1 is 1.51%
Percent of |grad| larger than 1e-2 is 4.07%
Percent of |grad| larger than 1e-3 is 18.37%
Percent of |grad| larger than 1e-4 is 59.88%
Percent of |grad| larger than 1e-5 is 91.74%
Percent of |grad| larger than 1e-6 is 99.77%
Percent of |updates| larger than 1e-1 is 0.00%
Percent of |updates| larger than 1e-2 is 1.16%
Percent of |updates| larger than 1e-3 is 55.58%
Percent of |updates| larger than 1e-4 is 98.60%
Percent of |updates| larger than 1e-5 is 100.00%
Time: 4.73 h, optimization step 1995 ended!
****************************************************************************************************
Optimization step 1996 start ...
|Psi_hf|/|Psi_max|: 1.000
Calculate Local Energy and Connected Space of Core Space costs 0.09 min
Number of selected states from old core space:  1758
The length of unique conn space:  16
Calculate Local Energy of Selected Conn Space costs 0.02 min
The length of new core space:  1774
The maximum magnitude of abandoned Hamiltonian matrix elemet:  0
!!! The Logpsi-Prob Method !!!
Variance: 0.00266
VMC energy: -74.68965303 +/- 0.00123 a.u.
Imaginary part of VMC energy: -1.27e-07
Variance: 0.00266
Perturbative correction: -0.00076719
Perturbative corrected VMC energy: -74.69042022
E_loc+E_nuc of 10 most probable configuration:
 [-74.68928568 -74.68893661 -74.68983132 -74.6889358  -74.68993398
 -74.68949633 -74.68964559 -74.68883804 -74.68955248 -74.68981034]
Largest 5 Local Energy:
 [-455.57074918 -439.87344373  -57.07853139 -767.55042569  947.51009824]
The best energy: -74.68970154 a.u.
The matrix building cost 0.00 min.
cg process: convergence to tolerance not achieved. 1 cg processes have been done.
Solve the matrix equation cost 0.03 min.
Learning Rate of Current step is 2.00e-01
!!! Convergency Info !!!
This updates step cost 0.14 min.
Energy change: -0.00002487
Percent of |grad| larger than 1e-1 is 1.51%
Percent of |grad| larger than 1e-2 is 3.02%
Percent of |grad| larger than 1e-3 is 15.93%
Percent of |grad| larger than 1e-4 is 53.60%
Percent of |grad| larger than 1e-5 is 90.47%
Percent of |grad| larger than 1e-6 is 98.95%
Percent of |grad| larger than 1e-7 is 100.00%
Percent of |updates| larger than 1e-1 is 0.00%
Percent of |updates| larger than 1e-2 is 1.16%
Percent of |updates| larger than 1e-3 is 56.63%
Percent of |updates| larger than 1e-4 is 98.84%
Percent of |updates| larger than 1e-5 is 100.00%
Time: 4.73 h, optimization step 1996 ended!
****************************************************************************************************
Optimization step 1997 start ...
|Psi_hf|/|Psi_max|: 1.000
Calculate Local Energy and Connected Space of Core Space costs 0.08 min
Number of selected states from old core space:  1762
The length of unique conn space:  23
Calculate Local Energy of Selected Conn Space costs 0.02 min
The length of new core space:  1785
The maximum magnitude of abandoned Hamiltonian matrix elemet:  0
!!! The Logpsi-Prob Method !!!
Variance: 0.00266
VMC energy: -74.68966940 +/- 0.00122 a.u.
Imaginary part of VMC energy: -1.23e-07
Variance: 0.00266
Perturbative correction: -0.00075259
Perturbative corrected VMC energy: -74.69042198
E_loc+E_nuc of 10 most probable configuration:
 [-74.68908155 -74.68884213 -74.68981262 -74.6889402  -74.68993937
 -74.68947574 -74.68955225 -74.68877541 -74.68951195 -74.68985772]
Largest 5 Local Energy:
 [-456.90871031 -446.19627794  -60.65255561 -748.82686305  954.44557906]
The best energy: -74.68970154 a.u.
The matrix building cost 0.00 min.
cg process: convergence to tolerance not achieved. 1 cg processes have been done.
Solve the matrix equation cost 0.03 min.
Learning Rate of Current step is 2.00e-01
!!! Convergency Info !!!
This updates step cost 0.13 min.
Energy change: -0.00001637
Percent of |grad| larger than 1e-1 is 1.51%
Percent of |grad| larger than 1e-2 is 3.02%
Percent of |grad| larger than 1e-3 is 18.02%
Percent of |grad| larger than 1e-4 is 54.19%
Percent of |grad| larger than 1e-5 is 90.81%
Percent of |grad| larger than 1e-6 is 99.53%
Percent of |updates| larger than 1e-1 is 0.00%
Percent of |updates| larger than 1e-2 is 1.05%
Percent of |updates| larger than 1e-3 is 55.00%
Percent of |updates| larger than 1e-4 is 98.14%
Percent of |updates| larger than 1e-5 is 100.00%
Time: 4.73 h, optimization step 1997 ended!
****************************************************************************************************
Optimization step 1998 start ...
|Psi_hf|/|Psi_max|: 1.000
Calculate Local Energy and Connected Space of Core Space costs 0.08 min
Number of selected states from old core space:  1761
The length of unique conn space:  4
Calculate Local Energy of Selected Conn Space costs 0.02 min
The length of new core space:  1765
The maximum magnitude of abandoned Hamiltonian matrix elemet:  0
!!! The Logpsi-Prob Method !!!
Variance: 0.00263
VMC energy: -74.68968067 +/- 0.00122 a.u.
Imaginary part of VMC energy: -1.24e-07
Variance: 0.00263
Perturbative correction: -0.00074111
Perturbative corrected VMC energy: -74.69042177
E_loc+E_nuc of 10 most probable configuration:
 [-74.68925081 -74.68892086 -74.68980221 -74.68893612 -74.68992581
 -74.68950222 -74.68963625 -74.6888093  -74.68955418 -74.68981426]
Largest 5 Local Energy:
 [-456.23091493 -441.958757    -55.4982687  -763.94802122  946.16991305]
The best energy: -74.68970154 a.u.
The matrix building cost 0.00 min.
cg process: convergence to tolerance not achieved. 1 cg processes have been done.
Solve the matrix equation cost 0.03 min.
Learning Rate of Current step is 2.00e-01
!!! Convergency Info !!!
This updates step cost 0.14 min.
Energy change: -0.00001127
Percent of |grad| larger than 1e-1 is 1.51%
Percent of |grad| larger than 1e-2 is 3.02%
Percent of |grad| larger than 1e-3 is 15.00%
Percent of |grad| larger than 1e-4 is 50.58%
Percent of |grad| larger than 1e-5 is 87.09%
Percent of |grad| larger than 1e-6 is 98.72%
Percent of |grad| larger than 1e-7 is 100.00%
Percent of |updates| larger than 1e-1 is 0.00%
Percent of |updates| larger than 1e-2 is 1.05%
Percent of |updates| larger than 1e-3 is 55.00%
Percent of |updates| larger than 1e-4 is 98.95%
Percent of |updates| larger than 1e-5 is 100.00%
Time: 4.74 h, optimization step 1998 ended!
****************************************************************************************************
Optimization step 1999 start ...
|Psi_hf|/|Psi_max|: 1.000
Calculate Local Energy and Connected Space of Core Space costs 0.07 min
Number of selected states from old core space:  1759
The length of unique conn space:  16
Calculate Local Energy of Selected Conn Space costs 0.02 min
The length of new core space:  1775
The maximum magnitude of abandoned Hamiltonian matrix elemet:  0
!!! The Logpsi-Prob Method !!!
Variance: 0.00264
VMC energy: -74.68968736 +/- 0.00122 a.u.
Imaginary part of VMC energy: -1.18e-07
Variance: 0.00264
Perturbative correction: -0.00073611
Perturbative corrected VMC energy: -74.69042346
E_loc+E_nuc of 10 most probable configuration:
 [-74.68909173 -74.68883974 -74.68980383 -74.68894073 -74.68993843
 -74.68948887 -74.6895569  -74.68876826 -74.68951533 -74.68985849]
Largest 5 Local Energy:
 [-457.40779835 -448.61118274  -59.54703852 -747.48100499  952.63382465]
The best energy: -74.68970154 a.u.
The matrix building cost 0.00 min.
cg process: convergence to tolerance not achieved. 1 cg processes have been done.
Solve the matrix equation cost 0.03 min.
Learning Rate of Current step is 2.00e-01
!!! Convergency Info !!!
This updates step cost 0.12 min.
Energy change: -0.00000669
Percent of |grad| larger than 1e-1 is 1.51%
Percent of |grad| larger than 1e-2 is 3.02%
Percent of |grad| larger than 1e-3 is 15.58%
Percent of |grad| larger than 1e-4 is 52.91%
Percent of |grad| larger than 1e-5 is 89.88%
Percent of |grad| larger than 1e-6 is 99.88%
Percent of |updates| larger than 1e-1 is 0.00%
Percent of |updates| larger than 1e-2 is 0.93%
Percent of |updates| larger than 1e-3 is 54.88%
Percent of |updates| larger than 1e-4 is 97.09%
Percent of |updates| larger than 1e-5 is 99.88%
Time: 4.74 h, optimization step 1999 ended!
****************************************************************************************************
Optimization step 2000 start ...
|Psi_hf|/|Psi_max|: 1.000
Calculate Local Energy and Connected Space of Core Space costs 0.07 min
Number of selected states from old core space:  1746
The length of unique conn space:  5
Calculate Local Energy of Selected Conn Space costs 0.02 min
The length of new core space:  1751
The maximum magnitude of abandoned Hamiltonian matrix elemet:  0
!!! The Logpsi-Prob Method !!!
Variance: 0.00262
VMC energy: -74.68969214 +/- 0.00122 a.u.
Imaginary part of VMC energy: -1.21e-07
Variance: 0.00262
Perturbative correction: -0.00073091
Perturbative corrected VMC energy: -74.69042306
E_loc+E_nuc of 10 most probable configuration:
 [-74.68923183 -74.68890924 -74.68979739 -74.68893767 -74.68993239
 -74.6895201  -74.68963232 -74.68879792 -74.6895487  -74.68981746]
Largest 5 Local Energy:
 [-456.62078586 -444.54817669  -54.77951383 -762.51651608  944.16936553]
The best energy: -74.68970154 a.u.
The matrix building cost 0.00 min.
cg process: convergence to tolerance not achieved. 1 cg processes have been done.
Solve the matrix equation cost 0.03 min.
Learning Rate of Current step is 2.00e-01
!!! Convergency Info !!!
This updates step cost 0.13 min.
Energy change: -0.00000479
Percent of |grad| larger than 1e-1 is 1.51%
Percent of |grad| larger than 1e-2 is 3.02%
Percent of |grad| larger than 1e-3 is 13.72%
Percent of |grad| larger than 1e-4 is 49.65%
Percent of |grad| larger than 1e-5 is 87.33%
Percent of |grad| larger than 1e-6 is 98.84%
Percent of |grad| larger than 1e-7 is 99.88%
Percent of |updates| larger than 1e-1 is 0.00%
Percent of |updates| larger than 1e-2 is 1.05%
Percent of |updates| larger than 1e-3 is 55.00%
Percent of |updates| larger than 1e-4 is 98.60%
Percent of |updates| larger than 1e-5 is 100.00%
Time: 4.74 h, optimization step 2000 ended!
****************************************************************************************************
wf_dict has been loaded.

Number of alpha electrons:  6
Number of beta electrons:  6
Number of space orbitals:  10
Number of spin orbitals:  20
Number of WaveFunction parameters:  860

Length of S&D excitation space:  804
Metropolis-Hasting Sampling Acceptance: 0.32%
The number of unique states of this sampling is 270
The number of total states of this sampling is 100000
The sampling costs 0.56 min.
VMC energy of MC samples:  (-74.68971674378788+1.6151205749824569e-06j)
[ 1  4 52 90 91 22 10]
HF state is contained !
